                               Psi4 1.9 release

  ==> Input File <==

--------------------------------------------------------------------------
memory 47 GB # how much memory is available ! Depends on the nodes/cores !

molecule dimer {
# monomer A
+1 1    # Charge and multiplicity
C  0.680067 -0.008042 -6.215929
C -0.680504 -0.006014 -6.215545
N -1.085635 -0.005016 -4.897221
C  0.000108 -0.001740 -4.115820
C -2.477365  0.044390 -4.429242
N  1.085222 -0.005016 -4.897221
H  1.385146 -0.015870 -7.033368
H -1.385302 -0.006204 -7.033214
H -0.000009  0.000007 -3.034731
C  2.478117 -0.021908 -4.432123
H  2.490592  0.005437 -3.341870
H  2.967028 -0.935354 -4.779299
H  3.001428  0.853575 -4.823595
H -2.857359  1.066461 -4.509201
H -3.082679 -0.625694 -5.042306
H -2.518128 -0.282594 -3.389294
--
# monomer B
0 1     # Charge and multiplicity
C   -3.66844126402057      7.80375217008252      0.00190004133558
C   -4.84759871934653      7.13124183134024     -0.00046653359696
C   -4.89495929917518      5.69633040353158     -0.00103944469517
C   -3.65374067877320      4.98073034095895      0.00662099703436
C   -2.40942512149445      7.11398103667468      0.00209438359570
C   -2.42547734410473      5.68112195090346     -0.00491050527438
C   -1.19474401643570      7.78614419430947      0.00356656413763
C   0.03795902893699      7.09942164575698      0.00139585983271
C   0.03033258741920      5.66948955970466     -0.00408752508301
C   -1.20098450790502      4.96927034791531      0.00488220885047
C   1.27795782581485      7.77285944319479      0.00277170839332
C   2.48535808472416      7.08769688523756      0.00049722048857
C   2.48612868491717      5.65477081024076     -0.00644052849921
C   1.25408291964399      4.95607811366431      0.00518741308898
C   3.75171459140595      7.76391215098033      0.00062407186893
C   4.92356605618520      7.07878077698995     -0.00143240883900
C   4.95560727132542      5.64344746336949     -0.00159282164606
C   3.70680153420475      4.94121020833308      0.00349873852374
H   -3.65852113775815      8.89082741913536      0.00358502958574
H   -1.18921332975660      8.87412108735996      0.00753844057883
H   1.28429423888630      8.86083343548850      0.00693053253426
H   3.75354208679975      8.85103527897216      0.00214659618464
H   5.86995870320703      7.61379483465560     -0.00235777588134
H   -5.78823170750226      7.67630221293400     -0.00202638095293
C   -6.09197395869619      4.99326001364347     -0.00291168518608
C   -6.12866148031747      3.58258016879823     -0.00171050815740
C   -3.66457974004527      3.56418217974434     -0.00463560277484
C   -4.89429820469869      2.86108077590057      0.00453338221034
C   -2.43733499489796      2.84761165708481      0.00719617576166
C   -1.20922785759670      3.54788693497833     -0.00648285103018
C   1.24714157216223      3.53468075142962     -0.00729145743546
C   0.01517603956900      2.83311183930540      0.00439272578912
C   2.46764517244071      2.82128997725533      0.00449278391269
C   3.70254947457969      3.52466015442405     -0.00899517692985
C   6.14498038638375      4.92757236613191     -0.00282626685777
C   6.16658835886151      3.51658447594213     -0.00065971342101
C   4.92460995845939      2.80840792535402      0.00587903281610
H   7.08990550964105      5.46688776622306     -0.00658814770723
H   -7.03104175110130      5.54268795285765     -0.00714490013730
C   -7.33969804112295      2.85841153457957     -0.00333767559888
C   -7.36488195805880      1.47032337158330     -0.00157213747140
C   -4.90350460894690      1.44442681216000     -0.00628840166334
C   -6.13225715261081      0.73993935705394      0.00600164231964
C   -3.67687480051673      0.72669714267312      0.00433931473643
C   -2.44565658606518      1.42964113326212     -0.00597039546461
C   -1.22360068130162      0.71532450163492      0.00545886906656
C   0.00763786931376      1.41738314923765      0.00392452278437
C   1.23121980774686      0.70211669058719     -0.01490206287210
C   2.46082110053113      1.40329203612573      0.00460244601878
C   3.68443025419614      0.68719842821222      0.00377365974158
C   4.91870890153864      1.39173456118907     -0.00862816189375
C   7.36980207796101      2.77948220318441     -0.00242013321349
C   7.38016266612146      1.39121750785509     -0.00087345036788
C   6.13979953912259      0.67411862320065      0.00545489144369
H   -8.27919079934664      3.40711804112415     -0.00763522772059
H   8.31511347147953      3.31811809662368     -0.00663070901292
C   -8.59175593758115      0.72483255304480     -0.00123170985383
C   -8.59902460370342     -0.63263980622873      0.00089141472904
C   -6.13981313911873     -0.67413663715361     -0.00609792660607
C   -7.38018411213749     -1.39126618958160      0.00131813493501
C   -4.91868448025621     -1.39175501803000      0.00624257154343
C   -3.68443829568458     -0.68723731573599     -0.00478966852105
C   -2.46081704024768     -1.40334517882457      0.00575341766833
C   -1.23116201232071     -0.70217386488055     -0.00636696112346
C   -0.00756962538737     -1.41741884941102      0.00108956317991
C   1.22364771588843     -0.71527537726392      0.01109518512883
C   2.44567064933149     -1.42964328900682     -0.00065482763106
C   3.67686670284649     -0.72670743155550     -0.00479541202602
C   6.13224884641929     -0.73997883984993     -0.00632338623858
C   4.90351914550401     -1.44445752054090      0.00751768830159
C   8.59901484869081      0.63260386666793     -0.00101133422380
C   8.59174548810050     -0.72485086719319      0.00072504603735
C   7.36486276438985     -1.47033266560598      0.00049486934466
H   -9.52830597181814      1.27684744919284     -0.00270163681798
H   9.54141097460619      1.17457248844457     -0.00206336648518
C   -7.36983790976868     -2.77954514593389      0.00312634335708
C   -4.92459910905015     -2.80843725734101     -0.00460528907921
C   -6.16662249566744     -3.51665219282533      0.00169655107992
C   -3.70251035970491     -3.52468154912026      0.00571878010666
C   -2.46764698511392     -2.82132596280400     -0.00632585824990
C   -0.01513347410770     -2.83314164539971     -0.00604426974092
C   -1.24712184122656     -3.53473217556300      0.00551968366725
C   1.20924506964357     -3.54791467864352      0.00805871345849
C   2.43733602215464     -2.84764173817541     -0.00608104485234
C   4.89430234377080     -2.86112296828604     -0.00526030478103
C   3.66461525504104     -3.56421984553201      0.00761911515957
C   6.12863901474565     -3.58258405771778      0.00096495711699
C   7.33967266469532     -2.85841330737039      0.00248018319869
H   -9.54144911125902     -1.17456346666430      0.00226083090216
H   9.52826186807155     -1.27691907390448      0.00197485379837
H   -8.31516504384864     -3.31814985321231      0.00729857188773
H   8.27915514249207     -3.40714078989363      0.00681973918158
C   -6.14499418870218     -4.92764727278338      0.00302254913999
C   -3.70678334799751     -4.94126171411716     -0.00679841894792
C   -4.95559005800169     -5.64349397349412      0.00116871569699
C   -2.48612132622665     -5.65478557440947      0.00614125209662
C   -1.25405833548005     -4.95612205000132     -0.00503435388927
C   1.20101257386816     -4.96928038819302     -0.00385322963129
C   -0.03033667441341     -5.66952030313900      0.00398997003238
C   3.65375010132847     -4.98074377541453     -0.00309522988330
C   2.42549269587528     -5.68117463552727      0.00628170066869
C   6.09196561781097     -4.99325796338655      0.00325918379042
C   4.89497644461045     -5.69634842095790      0.00202298796027
H   -7.08989238804069     -5.46699984223871      0.00742531082125
H   7.03105520920009     -5.54265853633254      0.00683896355417
C   -4.92354532219813     -7.07882109967734      0.00061394679214
C   -2.48534208823777     -7.08772807792913     -0.00189594564379
C   -3.75168589177895     -7.76394715763627     -0.00170126671874
C   -0.03794895698805     -7.09946487446944     -0.00168022049625
C   -1.27795610040136     -7.77290438466689     -0.00366491325785
C   2.40944432072629     -7.11402201200282     -0.00081701968533
C   1.19474993715296     -7.78618536556242     -0.00296931056689
C   4.84762105249800     -7.13126211057943      0.00168979497423
C   3.66847160587561     -7.80378799294376     -0.00065863938960
H   -5.86994035041618     -7.61383059804164      0.00215798365757
H   5.78824962538815     -7.67633218931421      0.00281691445618
H   -3.75352693944918     -8.85107156923607     -0.00353718114765
H   -1.28430440589466     -8.86087539249706     -0.00809229711623
H   1.18922157469537     -8.87416062058945     -0.00706194725726
H   3.65854661482387     -8.89086063405326     -0.00231318081200

    units angstrom      # Angstroms are the default
    no_reorient         # Geometry fixed, default
    symmetry c1         # C1 symmetry, default
}

set {
    scf_type DF         # Density fitting, faster than exact integrals
    freeze_core True    # Freeze core electrons
    basis jun-cc-pVDZ   # Jun-cc-pVDZ basis set, recommended for sSAPT0 in https://doi.org/10.1063/1.4867135
}

energy('ssapt0')        # Compute sSAPT0 energy, includes also SAPT0
--------------------------------------------------------------------------

  //              Dimer HF             //
    Molecular point group: c1
  Charge       = 1
  Multiplicity = 1
  Basis Set: JUN-CC-PVDZ
    Blend: JUN-CC-PVDZ
  Basis Set: (JUN-CC-PVDZ AUX)
    Blend: JUN-CC-PVDZ-JKFIT
  @DF-RHF Final Energy: -3953.65942988584720
    Total Energy =                      -3953.6594298858472030
 Dipole X            :         -0.0026546            0.0004804           -0.0021742
 Dipole Y            :         -0.0511667            0.0561130            0.0049463
 Dipole Z            :         21.7705068          -28.4798247           -6.7093179
 Magnitude           :                                                    6.7093200
  //            Monomer A HF           //
    Molecular point group: c1
  Multiplicity = 1
  Basis Set: JUN-CC-PVDZ
    Blend: JUN-CC-PVDZ
  Basis Set: (JUN-CC-PVDZ AUX)
    Blend: JUN-CC-PVDZ-JKFIT
  @DF-RHF Final Energy:  -303.29787258676379
    Total Energy =                       -303.2978725867637877
  //            Monomer B HF           //
    Molecular point group: c1

    Geometry (in Angstrom), charge = 0, multiplicity = 1:

       Center              X                  Y                   Z               Mass
    ------------   -----------------  -----------------  -----------------  -----------------
      Gh(C)           0.680062820275    -0.008027535675    -5.834723399864    12.000000000000
      Gh(C)          -0.680508179725    -0.005999535675    -5.834339399864    12.000000000000
      Gh(N)          -1.085639179725    -0.005001535675    -4.516015399864    14.003074004430
      Gh(C)           0.000103820275    -0.001725535675    -3.734614399864    12.000000000000
      Gh(C)          -2.477369179725     0.044404464325    -4.048036399864    12.000000000000
      Gh(N)           1.085217820275    -0.005001535675    -4.516015399864    14.003074004430
      Gh(H)           1.385141820275    -0.015855535675    -6.652162399864     1.007825032230
      Gh(H)          -1.385306179725    -0.006189535675    -6.652008399864     1.007825032230
      Gh(H)          -0.000013179725     0.000021464325    -2.653525399864     1.007825032230
      Gh(C)           2.478112820275    -0.021893535675    -4.050917399864    12.000000000000
      Gh(H)           2.490587820275     0.005451464325    -2.960664399864     1.007825032230
      Gh(H)           2.967023820275    -0.935339535675    -4.398093399864     1.007825032230
      Gh(H)           3.001423820275     0.853589464325    -4.442389399864     1.007825032230
      Gh(H)          -2.857363179725     1.066475464325    -4.127995399864     1.007825032230
      Gh(H)          -3.082683179725    -0.625679535675    -4.661100399864     1.007825032230
      Gh(H)          -2.518132179725    -0.282579535675    -3.008088399864     1.007825032230
         C           -3.668445443746     7.803766634408     0.383105641472    12.000000000000
         C           -4.847602899072     7.131256295665     0.380739066539    12.000000000000
         C           -4.894963478901     5.696344867857     0.380166155441    12.000000000000
         C           -3.653744858499     4.980744805284     0.387826597170    12.000000000000
         C           -2.409429301220     7.113995501000     0.383299983732    12.000000000000
         C           -2.425481523830     5.681136415228     0.376295094862    12.000000000000
         C           -1.194748196161     7.786158658634     0.384772164274    12.000000000000
         C            0.037954849212     7.099436110082     0.382601459969    12.000000000000
         C            0.030328407694     5.669504024030     0.377118075053    12.000000000000
         C           -1.200988687630     4.969284812240     0.386087808986    12.000000000000
         C            1.277953646089     7.772873907520     0.383977308529    12.000000000000
         C            2.485353904999     7.087711349563     0.381702820625    12.000000000000
         C            2.486124505192     5.654785274566     0.374765071637    12.000000000000
         C            1.254078739919     4.956092577989     0.386393013225    12.000000000000
         C            3.751710411681     7.763926615305     0.381829672005    12.000000000000
         C            4.923561876460     7.078795241315     0.379773191297    12.000000000000
         C            4.955603091600     5.643461927694     0.379612778490    12.000000000000
         C            3.706797354479     4.941224672658     0.384704338660    12.000000000000
         H           -3.658525317484     8.890841883460     0.384790629722     1.007825032230
         H           -1.189217509482     8.874135551685     0.388744040715     1.007825032230
         H            1.284290059161     8.860847899813     0.388136132670     1.007825032230
         H            3.753537907074     8.851049743297     0.383352196321     1.007825032230
         H            5.869954523482     7.613809298981     0.378847824255     1.007825032230
         H           -5.788235887228     7.676316677259     0.379179219183     1.007825032230
         C           -6.091978138422     4.993274477968     0.378293914950    12.000000000000
         C           -6.128665660043     3.582594633123     0.379495091979    12.000000000000
         C           -3.664583919771     3.564196644069     0.376569997361    12.000000000000
         C           -4.894302384424     2.861095240226     0.385738982346    12.000000000000
         C           -2.437339174623     2.847626121410     0.388401775898    12.000000000000
         C           -1.209232037322     3.547901399303     0.374722749106    12.000000000000
         C            1.247137392437     3.534695215755     0.373914142700    12.000000000000
         C            0.015171859844     2.833126303630     0.385598325925    12.000000000000
         C            2.467640992715     2.821304441580     0.385698384049    12.000000000000
         C            3.702545294854     3.524674618749     0.372210423206    12.000000000000
         C            6.144976206658     4.927586830457     0.378379333278    12.000000000000
         C            6.166584179136     3.516598940267     0.380545886715    12.000000000000
         C            4.924605778734     2.808422389679     0.387084632952    12.000000000000
         H            7.089901329916     5.466902230548     0.374617452429     1.007825032230
         H           -7.031045930827     5.542702417183     0.374060699999     1.007825032230
         C           -7.339702220848     2.858425998905     0.377867924537    12.000000000000
         C           -7.364886137784     1.470337835908     0.379633462665    12.000000000000
         C           -4.903508788672     1.444441276485     0.374917198473    12.000000000000
         C           -6.132261332336     0.739953821379     0.387207242456    12.000000000000
         C           -3.676878980242     0.726711606998     0.385544914872    12.000000000000
         C           -2.445660765791     1.429655597587     0.375235204671    12.000000000000
         C           -1.223604861027     0.715338965960     0.386664469203    12.000000000000
         C            0.007633689588     1.417397613563     0.385130122920    12.000000000000
         C            1.231215628021     0.702131154912     0.366303537264    12.000000000000
         C            2.460816920806     1.403306500451     0.385808046155    12.000000000000
         C            3.684426074471     0.687212892537     0.384979259878    12.000000000000
         C            4.918704721813     1.391749025514     0.372577438242    12.000000000000
         C            7.369797898236     2.779496667509     0.378785466922    12.000000000000
         C            7.380158486396     1.391231972180     0.380332149768    12.000000000000
         C            6.139795359397     0.674133087526     0.386660491580    12.000000000000
         H           -8.279194979072     3.407132505449     0.373570372415     1.007825032230
         H            8.315109291754     3.318132560949     0.374574891123     1.007825032230
         C           -8.591760117307     0.724847017370     0.379973890282    12.000000000000
         C           -8.599028783429    -0.632625341904     0.382097014865    12.000000000000
         C           -6.139817318844    -0.674122172829     0.375107673530    12.000000000000
         C           -7.380188291863    -1.391251725257     0.382523735071    12.000000000000
         C           -4.918688659982    -1.391740553705     0.387448171679    12.000000000000
         C           -3.684442475410    -0.687222851411     0.376415931615    12.000000000000
         C           -2.460821219973    -1.403330714500     0.386959017804    12.000000000000
         C           -1.231166192046    -0.702159400556     0.374838639012    12.000000000000
         C           -0.007573805113    -1.417404385086     0.382295163316    12.000000000000
         C            1.223643536163    -0.715260912939     0.392300785265    12.000000000000
         C            2.445666469606    -1.429628824682     0.380550772505    12.000000000000
         C            3.676862523121    -0.726692967231     0.376410188110    12.000000000000
         C            6.132244666694    -0.739964375525     0.374882213897    12.000000000000
         C            4.903514965779    -1.444443056216     0.388723288438    12.000000000000
         C            8.599010668965     0.632618330993     0.380194265912    12.000000000000
         C            8.591741308375    -0.724836402868     0.381930646173    12.000000000000
         C            7.364858584664    -1.470318201281     0.381700469481    12.000000000000
         H           -9.528310151544     1.276861913518     0.378503963318     1.007825032230
         H            9.541406794881     1.174586952770     0.379142233651     1.007825032230
         C           -7.369842089494    -2.779530681609     0.384331943493    12.000000000000
         C           -4.924603288776    -2.808422793016     0.376600311057    12.000000000000
         C           -6.166626675393    -3.516637728500     0.382902151216    12.000000000000
         C           -3.702514539430    -3.524667084795     0.386924380243    12.000000000000
         C           -2.467651164839    -2.821311498479     0.374879741886    12.000000000000
         C           -0.015137653833    -2.833127181075     0.375161330395    12.000000000000
         C           -1.247126020952    -3.534717711238     0.386725283803    12.000000000000
         C            1.209240889918    -3.547900214319     0.389264313594    12.000000000000
         C            2.437331842429    -2.847627273850     0.375124555284    12.000000000000
         C            4.894298164045    -2.861108503961     0.375945295355    12.000000000000
         C            3.664611075316    -3.564205381207     0.388824715296    12.000000000000
         C            6.128634835020    -3.582569593393     0.382170557253    12.000000000000
         C            7.339668484970    -2.858398843045     0.383685783335    12.000000000000
         H           -9.541453290984    -1.174549002339     0.383466431038     1.007825032230
         H            9.528257688346    -1.276904609579     0.383180453934     1.007825032230
         H           -8.315169223574    -3.318135388887     0.388504172024     1.007825032230
         H            8.279150962767    -3.407126325569     0.388025339318     1.007825032230
         C           -6.144998368428    -4.927632808458     0.384228149276    12.000000000000
         C           -3.706787527723    -4.941247249792     0.374407181188    12.000000000000
         C           -4.955594237727    -5.643479509169     0.382374315833    12.000000000000
         C           -2.486125505952    -5.654771110084     0.387346852233    12.000000000000
         C           -1.254062515205    -4.956107585676     0.376171246247    12.000000000000
         C            1.201008394143    -4.969265923868     0.377352370505    12.000000000000
         C           -0.030340854139    -5.669505838814     0.385195570168    12.000000000000
         C            3.653745921603    -4.980729311090     0.378110370253    12.000000000000
         C            2.425488516150    -5.681160171202     0.387487300805    12.000000000000
         C            6.091961438086    -4.993243499062     0.384464783926    12.000000000000
         C            4.894972264885    -5.696333956633     0.383228588096    12.000000000000
         H           -7.089896567766    -5.466985377914     0.388630910957     1.007825032230
         H            7.031051029475    -5.542644072008     0.388044563690     1.007825032230
         C           -4.923549501924    -7.078806635352     0.381819546928    12.000000000000
         C           -2.485346267963    -7.087713613604     0.379309654492    12.000000000000
         C           -3.751690071504    -7.763932693311     0.379504333417    12.000000000000
         C           -0.037953136713    -7.099450410144     0.379525379640    12.000000000000
         C           -1.277960280127    -7.772889920342     0.377540686878    12.000000000000
         C            2.409440141001    -7.114007547678     0.380388580451    12.000000000000
         C            1.194745757428    -7.786170901237     0.378236289569    12.000000000000
         C            4.847616872773    -7.131247646254     0.382895395110    12.000000000000
         C            3.668467426150    -7.803773528619     0.380546960746    12.000000000000
         H           -5.869944530142    -7.613816133717     0.383363583794     1.007825032230
         H            5.788245445663    -7.676317724989     0.384022514592     1.007825032230
         H           -3.753531119175    -8.851057104911     0.377668418988     1.007825032230
         H           -1.284308585620    -8.860860928172     0.373113303020     1.007825032230
         H            1.189217394970    -8.874146156264     0.374143652879     1.007825032230
         H            3.658542435098    -8.890846169728     0.378892419324     1.007825032230

  Charge       = 0
  Multiplicity = 1
  Basis Set: JUN-CC-PVDZ
    Blend: JUN-CC-PVDZ
  Basis Set: (JUN-CC-PVDZ AUX)
    Blend: JUN-CC-PVDZ-JKFIT

    Orbital Energies [Eh]
    ---------------------

    Doubly Occupied:

       1A    -11.264039     2A    -11.263723     3A    -11.263668
       4A    -11.263333     5A    -11.263311     6A    -11.263264
       7A    -11.263146     8A    -11.263121     9A    -11.263082
      10A    -11.262904    11A    -11.262773    12A    -11.262752
      13A    -11.262281    14A    -11.262265    15A    -11.262240
      16A    -11.262196    17A    -11.262127    18A    -11.262104
      19A    -11.262063    20A    -11.262020    21A    -11.262015
      22A    -11.261900    23A    -11.261884    24A    -11.261744
      25A    -11.261738    26A    -11.261713    27A    -11.261709
      28A    -11.261668    29A    -11.261661    30A    -11.261574
      31A    -11.261553    32A    -11.261549    33A    -11.261529
      34A    -11.261523    35A    -11.261507    36A    -11.261501
      37A    -11.261321    38A    -11.261312    39A    -11.261305
      40A    -11.261302    41A    -11.261289    42A    -11.261285
      43A    -11.261275    44A    -11.261262    45A    -11.261254
      46A    -11.261232    47A    -11.261227    48A    -11.261222
      49A    -11.261074    50A    -11.261053    51A    -11.261017
      52A    -11.260976    53A    -11.260935    54A    -11.260892
      55A    -11.259905    56A    -11.259892    57A    -11.259888
      58A    -11.259860    59A    -11.259857    60A    -11.259842
      61A    -11.259276    62A    -11.259254    63A    -11.259244
      64A    -11.259198    65A    -11.259190    66A    -11.259163
      67A    -11.258908    68A    -11.258890    69A    -11.258888
      70A    -11.258860    71A    -11.258857    72A    -11.258846
      73A    -11.254517    74A    -11.254516    75A    -11.254511
      76A    -11.254507    77A    -11.254502    78A    -11.254494
      79A    -11.253646    80A    -11.253645    81A    -11.253636
      82A    -11.253633    83A    -11.253631    84A    -11.253625
      85A    -11.253561    86A    -11.253561    87A    -11.253551
      88A    -11.253548    89A    -11.253547    90A    -11.253540
      91A    -11.253045    92A    -11.253043    93A    -11.253039
      94A    -11.253035    95A    -11.253031    96A    -11.253022
      97A     -1.253913    98A     -1.238977    99A     -1.238952
     100A     -1.220440   101A     -1.220427   102A     -1.215414
     103A     -1.201016   104A     -1.195579   105A     -1.188117
     106A     -1.188103   107A     -1.173740   108A     -1.173739
     109A     -1.155598   110A     -1.155592   111A     -1.152688
     112A     -1.144700   113A     -1.144697   114A     -1.128536
     115A     -1.114682   116A     -1.113141   117A     -1.112459
     118A     -1.112432   119A     -1.111597   120A     -1.088401
     121A     -1.088381   122A     -1.076940   123A     -1.076939
     124A     -1.067590   125A     -1.067551   126A     -1.064941
     127A     -1.046773   128A     -1.046763   129A     -1.040450
     130A     -1.038716   131A     -1.038710   132A     -1.025208
     133A     -1.021354   134A     -1.021291   135A     -1.007154
     136A     -1.006775   137A     -1.003769   138A     -1.000461
     139A     -1.000403   140A     -0.991055   141A     -0.970959
     142A     -0.970908   143A     -0.955860   144A     -0.955801
     145A     -0.905549   146A     -0.905529   147A     -0.905515
     148A     -0.905486   149A     -0.904292   150A     -0.892323
     151A     -0.892268   152A     -0.890327   153A     -0.890274
     154A     -0.889419   155A     -0.872194   156A     -0.869038
     157A     -0.851511   158A     -0.847825   159A     -0.847813
     160A     -0.845562   161A     -0.842979   162A     -0.834532
     163A     -0.834522   164A     -0.828097   165A     -0.828088
     166A     -0.784521   167A     -0.784511   168A     -0.783628
     169A     -0.783610   170A     -0.782252   171A     -0.782233
     172A     -0.781997   173A     -0.766958   174A     -0.760755
     175A     -0.750540   176A     -0.733460   177A     -0.727048
     178A     -0.727011   179A     -0.725047   180A     -0.724514
     181A     -0.724483   182A     -0.718455   183A     -0.713735
     184A     -0.713728   185A     -0.699550   186A     -0.699526
     187A     -0.686087   188A     -0.685929   189A     -0.685919
     190A     -0.682141   191A     -0.682132   192A     -0.678746
     193A     -0.653596   194A     -0.650841   195A     -0.650806
     196A     -0.649770   197A     -0.649764   198A     -0.649536
     199A     -0.640899   200A     -0.640852   201A     -0.640055
     202A     -0.639131   203A     -0.635988   204A     -0.635956
     205A     -0.629103   206A     -0.617773   207A     -0.615277
     208A     -0.615250   209A     -0.608768   210A     -0.608762
     211A     -0.599167   212A     -0.599091   213A     -0.598710
     214A     -0.598557   215A     -0.598545   216A     -0.597999
     217A     -0.595036   218A     -0.595023   219A     -0.594688
     220A     -0.594187   221A     -0.591918   222A     -0.591915
     223A     -0.587348   224A     -0.577774   225A     -0.577756
     226A     -0.575695   227A     -0.575657   228A     -0.573346
     229A     -0.569581   230A     -0.568105   231A     -0.568078
     232A     -0.566714   233A     -0.566709   234A     -0.560887
     235A     -0.558689   236A     -0.558646   237A     -0.558400
     238A     -0.554331   239A     -0.550557   240A     -0.547448
     241A     -0.544249   242A     -0.535011   243A     -0.534955
     244A     -0.533504   245A     -0.533486   246A     -0.528047
     247A     -0.528028   248A     -0.527746   249A     -0.517125
     250A     -0.517098   251A     -0.515333   252A     -0.515328
     253A     -0.509607   254A     -0.509595   255A     -0.497989
     256A     -0.496421   257A     -0.496377   258A     -0.493805
     259A     -0.493732   260A     -0.489436   261A     -0.481416
     262A     -0.477395   263A     -0.477392   264A     -0.473957
     265A     -0.469394   266A     -0.466481   267A     -0.466479
     268A     -0.458793   269A     -0.446633   270A     -0.446581
     271A     -0.440999   272A     -0.440761   273A     -0.440693
     274A     -0.434662   275A     -0.433885   276A     -0.407342
     277A     -0.407325   278A     -0.386388   279A     -0.386319
     280A     -0.385708   281A     -0.385702   282A     -0.383730
     283A     -0.354293   284A     -0.354270   285A     -0.350638
     286A     -0.338053   287A     -0.335533   288A     -0.335512
     289A     -0.332688   290A     -0.332680   291A     -0.307032
     292A     -0.301905   293A     -0.301843   294A     -0.300821
     295A     -0.286138   296A     -0.256448   297A     -0.253450
     298A     -0.253416   299A     -0.204227   300A     -0.204143

  @DF-RHF Final Energy: -3650.34047079029051

   => Energetics <=

    Nuclear Repulsion Energy =          15611.4211649754306563
    One-Electron Energy =              -36072.1617712514344021
    Two-Electron Energy =               16810.4001354857136903
    Total Energy =                      -3650.3404707902918744
 Dipole X            :         -0.0006282            0.0002112           -0.0004170
 Dipole Y            :          0.0012012           -0.0013774           -0.0001762
 Dipole Z            :       -432.2204589          432.2279010            0.0074420
 Magnitude           :                                                    0.0074558

    SAPT Results
  --------------------------------------------------------------------------------------------------------
    Electrostatics                -11.62951451 [mEh]      -7.29763053 [kcal/mol]     -30.53328613 [kJ/mol]
      Elst10,r                    -11.62951451 [mEh]      -7.29763053 [kcal/mol]     -30.53328613 [kJ/mol]

    Exchange                        1.28610766 [mEh]       0.80704474 [kcal/mol]       3.37667520 [kJ/mol]
      Exch10                        1.28610766 [mEh]       0.80704474 [kcal/mol]       3.37667520 [kJ/mol]
      Exch10(S^2)                   1.28548973 [mEh]       0.80665698 [kcal/mol]       3.37505282 [kJ/mol]

    Induction                     -10.74310195 [mEh]      -6.74139825 [kcal/mol]     -28.20601028 [kJ/mol]
      Ind20,r                     -10.24365870 [mEh]      -6.42799288 [kcal/mol]     -26.89472221 [kJ/mol]
      Exch-Ind20,r                  0.23713534 [mEh]       0.14880467 [kcal/mol]       0.62259874 [kJ/mol]
      delta HF,r (2)               -0.73657859 [mEh]      -0.46221004 [kcal/mol]      -1.93388681 [kJ/mol]

    Dispersion                    -10.21068925 [mEh]      -6.40730424 [kcal/mol]     -26.80816093 [kJ/mol]
      Disp20                      -10.36230121 [mEh]      -6.50244218 [kcal/mol]     -27.20621807 [kJ/mol]
      Exch-Disp20                   0.15161196 [mEh]       0.09513794 [kcal/mol]       0.39805714 [kJ/mol]
      Disp20 (SS)                  -5.18115060 [mEh]      -3.25122109 [kcal/mol]     -13.60310904 [kJ/mol]
      Disp20 (OS)                  -5.18115060 [mEh]      -3.25122109 [kcal/mol]     -13.60310904 [kJ/mol]
      Exch-Disp20 (SS)              0.09734449 [mEh]       0.06108459 [kcal/mol]       0.25557793 [kJ/mol]
      Exch-Disp20 (OS)              0.05426747 [mEh]       0.03405335 [kcal/mol]       0.14247921 [kJ/mol]

  Total HF                        -21.08650879 [mEh]     -13.23198404 [kcal/mol]     -55.36262121 [kJ/mol]
  Total SAPT0                     -31.29719804 [mEh]     -19.63928827 [kcal/mol]     -82.17078214 [kJ/mol]

  Special recipe for scaled SAPT0 (see Manual):
    Electrostatics sSAPT0         -11.62951451 [mEh]      -7.29763053 [kcal/mol]     -30.53328613 [kJ/mol]
    Exchange sSAPT0                 1.28610766 [mEh]       0.80704474 [kcal/mol]       3.37667520 [kJ/mol]
    Induction sSAPT0              -10.74275981 [mEh]      -6.74118356 [kcal/mol]     -28.20511200 [kJ/mol]
    Dispersion sSAPT0             -10.21047051 [mEh]      -6.40716697 [kcal/mol]     -26.80758662 [kJ/mol]
  Total sSAPT0                    -31.29663716 [mEh]     -19.63893632 [kcal/mol]     -82.16930955 [kJ/mol]
  --------------------------------------------------------------------------------------------------------

*** Psi4 exiting successfully. Buy a developer a beer!
