                               Psi4 1.9 release

  ==> Input File <==

--------------------------------------------------------------------------
memory 32 GB # how much memory is available ! Depends on the nodes/cores !

molecule dimer {
# monomer A
+1 1    # Charge and multiplicity
C  0.680067 -1.215929 8.008042
C -0.680504 -1.215545 8.006014
N -1.085635  0.102779 8.005016
C  0.000108  0.884180 8.001740
C -2.477365  0.570758 7.955610
N  1.085222  0.102779 8.005016
H  1.385146 -2.033368 8.015870
H -1.385302 -2.033214 8.006204
H -0.000009  1.965269 7.999993
C  2.478117  0.567877 8.021908
H  2.490592  1.658130 7.994563
H  2.967028  0.220701 8.935354
H  3.001428  0.176405 7.146425
H -2.857359  0.490799 6.933539
H -3.082679 -0.042306 8.625694
H -2.518128  1.610706 8.282594
--
# monomer B
0 1     # Charge and multiplicity
C   1.22531237526482      0.70753866091955      0.00613762728373
C   1.22532433589282     -0.70753852257020     -0.00619318228664
C   -0.00000567409046      1.41496628609039     -0.00672680580738
C   2.45644923379077      1.41832825917820      0.00902448468363
C   0.00001130712078     -1.41497612663474      0.00347275151708
C   -1.22530046906674      0.70754574598412      0.00838914760619
C   2.45643823516184     -1.41832293188077     -0.00843833914343
C   -0.00000085313587      2.83680140328112     -0.00913035594137
C   3.68182717731192      0.70931832800114     -0.00808954934571
C   2.45512052870677      2.83422403348893     -0.00819210630633
C   3.68182158506039     -0.70933346742900      0.00798293467272
C   -1.22531311884624     -0.70752714354401     -0.00512042085974
C   1.22670006104402      3.54346985599427      0.00816696660346
C   0.00000526469929     -2.83678176723568      0.00832091913869
C   -2.45643555300670      1.41831729028492      0.00842454345199
C   2.45512389762097     -2.83422965658853      0.00783102630520
C   -1.22671388474763      3.54346943575023      0.00827029982280
C   4.91451777504333      1.42717324448953     -0.00160886631602
C   3.69315067131765      3.54279566454522     -0.00155906667985
C   -2.45643712022637     -1.41831290883911     -0.00846337726810
C   1.22670532178455     -3.54347386990643     -0.00780316414624
C   -2.45512491866593      2.83421703463423     -0.00818572995999
C   4.91452486062398     -1.42718653794377      0.00136387641845
C   1.22142509354026      4.97013443726031      0.00150231067809
C   4.89300870916237      2.82518837202648     -0.00039219795739
C   -1.22669652864725     -3.54347062507680     -0.00753595973677
C   -3.68181849668397      0.70932533873199     -0.00807686886569
C   3.69314758099218     -3.54280096939050      0.00148176697923
C   -1.22143177215231      4.97012866986289      0.00168580605083
C   6.13477145276790      0.68054831910577     -0.00083909176631
C   3.65678936045204      4.97295361556775     -0.00065042889723
C   -2.45512642789169     -2.83421472106065      0.00758666850712
C   -3.68181869921921     -0.70932533146830      0.00810055625144
C   4.89301309775526     -2.82519973363176      0.00021895393805
C   -0.00000059327114      5.65044773803267      0.00045449734393
C   6.13477559217374     -0.68055448207492      0.00042622874941
C   2.47813196269732      5.65357712333155      0.00063835075260
C   1.22142288457925     -4.97012668293268     -0.00129718634452
C   -3.69316190412301      3.54279732619245     -0.00139355922051
C   -1.22142804110313     -4.97011793159564     -0.00140994817719
C   -4.91452132810043      1.42717581899491     -0.00153192130862
C   3.65678749952045     -4.97295485423912      0.00080007163680
C   -2.47813805026426      5.65357479452875      0.00092287576113
C   -3.69314125872231     -3.54278984697859      0.00136564082345
C   -4.91451200321153     -1.42718062802730      0.00139857359209
C   -0.00000552908399     -5.65043791501335      0.00005899322272
C   -4.89302000425900      2.82518897091939     -0.00040227981744
C   2.47812647313991     -5.65357317188818     -0.00029052915548
C   -3.65679823041642      4.97295655404175     -0.00047374852278
C   -4.89299899901461     -2.82519139505969      0.00006491824035
C   -2.47812801824129     -5.65356579800621     -0.00056571680280
C   -6.13477002348955      0.68054913825639     -0.00086464346868
C   -3.65678835334731     -4.97294365097028      0.00058578382008
C   -6.13476456307132     -0.68055354348201      0.00040575295444
H   5.83528897565761      3.36927626695423      0.00396712770529
H   7.07385965258860      1.22821762089947     -0.00037744837300
H   4.60066374401555      5.51238117445323     -0.00014522814529
H   5.83528386714679     -3.36930568472863     -0.00423551337640
H   -0.00001167146422      6.73853104613662     -0.00389474766392
H   7.07386165167227     -1.22822657074368     -0.00008250934481
H   2.47331421164041      6.74068466339473      0.00017162982210
H   4.60066897122302     -5.51237575717576      0.00039007446835
H   -2.47331820069565      6.74068209160650      0.00047297644710
H   -0.00000978838621     -6.73852780445195      0.00458867820736
H   -5.83530143450167      3.36927132229595      0.00410314985360
H   2.47330840367253     -6.74068500242887      0.00027980126949
H   -4.60067436136587      5.51237839860371      0.00002010017831
H   -5.83527902699321     -3.36928859177951     -0.00451481925734
H   -2.47329986759855     -6.74067870613986     -0.00016951527498
H   -7.07385728692578      1.22822084484047     -0.00046143985387
H   -4.60067330624313     -5.51236229778631      0.00021776644566
H   -7.07385645456741     -1.22822025997701     -0.00017736581114

    units angstrom      # Angstroms are the default
    no_reorient         # Geometry fixed, default
    symmetry c1         # C1 symmetry, default
}

set {
    scf_type DF         # Density fitting, faster than exact integrals
    freeze_core True    # Freeze core electrons
    basis jun-cc-pVDZ   # Jun-cc-pVDZ basis set, recommended for sSAPT0 in https://doi.org/10.1063/1.4867135
}

energy('ssapt0')        # Compute sSAPT0 energy, includes also SAPT0
--------------------------------------------------------------------------

  //              Dimer HF             //
    Molecular point group: c1
  Charge       = 1
  Multiplicity = 1
  Basis Set: JUN-CC-PVDZ
    Blend: JUN-CC-PVDZ
  Basis Set: (JUN-CC-PVDZ AUX)
    Blend: JUN-CC-PVDZ-JKFIT
  @DF-RHF Final Energy: -2359.19560248368180
    Total Energy =                      -2359.1956024836817960
 Dipole X            :          0.0021306            0.0006313            0.0027619
 Dipole Y            :         -1.4935604            1.8864948            0.3929344
 Dipole Z            :        -29.1238619           41.6454646           12.5216026
 Magnitude           :                                                   12.5277667
  //            Monomer A HF           //
    Molecular point group: c1
  Multiplicity = 1
  Basis Set: JUN-CC-PVDZ
    Blend: JUN-CC-PVDZ
  Basis Set: (JUN-CC-PVDZ AUX)
    Blend: JUN-CC-PVDZ-JKFIT
  @DF-RHF Final Energy:  -303.29719099330487
    Total Energy =                       -303.2971909933048664
  //            Monomer B HF           //
    Molecular point group: c1

    Geometry (in Angstrom), charge = 0, multiplicity = 1:

       Center              X                  Y                   Z               Mass
    ------------   -----------------  -----------------  -----------------  -----------------
      Gh(C)           0.680066520158    -1.215933861162     6.990493266728    12.000000000000
      Gh(C)          -0.680504479842    -1.215549861162     6.988465266728    12.000000000000
      Gh(N)          -1.085635479842     0.102774138838     6.987467266728    14.003074004430
      Gh(C)           0.000107520158     0.884175138838     6.984191266728    12.000000000000
      Gh(C)          -2.477365479842     0.570753138838     6.938061266728    12.000000000000
      Gh(N)           1.085221520158     0.102774138838     6.987467266728    14.003074004430
      Gh(H)           1.385145520158    -2.033372861162     6.998321266728     1.007825032230
      Gh(H)          -1.385302479842    -2.033218861162     6.988655266728     1.007825032230
      Gh(H)          -0.000009479842     1.965264138838     6.982444266728     1.007825032230
      Gh(C)           2.478116520158     0.567872138838     7.004359266728    12.000000000000
      Gh(H)           2.490591520158     1.658125138838     6.977014266728     1.007825032230
      Gh(H)           2.967027520158     0.220696138838     7.917805266728     1.007825032230
      Gh(H)           3.001427520158     0.176400138838     6.128876266728     1.007825032230
      Gh(H)          -2.857359479842     0.490794138838     5.915990266728     1.007825032230
      Gh(H)          -3.082679479842    -0.042310861162     7.608145266728     1.007825032230
      Gh(H)          -2.518128479842     1.610701138838     7.265045266728     1.007825032230
         C            1.225311895423     0.707533799757    -1.011411105988    12.000000000000
         C            1.225323856051    -0.707543383733    -1.023741915559    12.000000000000
         C           -0.000006153932     1.414961424928    -1.024275539080    12.000000000000
         C            2.456448753949     1.418323398016    -1.008524248589    12.000000000000
         C            0.000010827279    -1.414980987797    -1.014075981755    12.000000000000
         C           -1.225300948908     0.707540884822    -1.009159585666    12.000000000000
         C            2.456437755320    -1.418327793043    -1.025987072416    12.000000000000
         C           -0.000001332978     2.836796542119    -1.026679089214    12.000000000000
         C            3.681826697470     0.709313466839    -1.025638282618    12.000000000000
         C            2.455120048865     2.834219172327    -1.025740839578    12.000000000000
         C            3.681821105219    -0.709338328591    -1.009565798599    12.000000000000
         C           -1.225313598688    -0.707532004706    -1.022669154132    12.000000000000
         C            1.226699581202     3.543464994832    -1.009381766669    12.000000000000
         C            0.000004784858    -2.836786628398    -1.009227814133    12.000000000000
         C           -2.456436032848     1.418312429123    -1.009124189820    12.000000000000
         C            2.455123417779    -2.834234517751    -1.009717706967    12.000000000000
         C           -1.226714364589     3.543464574588    -1.009278433449    12.000000000000
         C            4.914517295202     1.427168383327    -1.019157599588    12.000000000000
         C            3.693150191476     3.542790803383    -1.019107799952    12.000000000000
         C           -2.456437600068    -1.418317770001    -1.026012110540    12.000000000000
         C            1.226704841943    -3.543478731069    -1.025351897418    12.000000000000
         C           -2.455125398508     2.834212173472    -1.025734463232    12.000000000000
         C            4.914524380782    -1.427191399106    -1.016184856854    12.000000000000
         C            1.221424613699     4.970129576098    -1.016046422594    12.000000000000
         C            4.893008229321     2.825183510864    -1.017940931230    12.000000000000
         C           -1.226697008489    -3.543475486239    -1.025084693009    12.000000000000
         C           -3.681818976526     0.709320477570    -1.025625602138    12.000000000000
         C            3.693147101150    -3.542805830553    -1.016066966293    12.000000000000
         C           -1.221432251994     4.970123808701    -1.015862927221    12.000000000000
         C            6.134770972926     0.680543457943    -1.018387825038    12.000000000000
         C            3.656788880610     4.972948754405    -1.018199162169    12.000000000000
         C           -2.455126907733    -2.834219582223    -1.009962064765    12.000000000000
         C           -3.681819179061    -0.709330192631    -1.009448177021    12.000000000000
         C            4.893012617914    -2.825204594794    -1.017329779334    12.000000000000
         C           -0.000001073113     5.650442876870    -1.017094235928    12.000000000000
         C            6.134775112332    -0.680559343237    -1.017122504523    12.000000000000
         C            2.478131482856     5.653572262169    -1.016910382520    12.000000000000
         C            1.221422404738    -4.970131544095    -1.018845919617    12.000000000000
         C           -3.693162383965     3.542792465030    -1.018942292493    12.000000000000
         C           -1.221428520945    -4.970122792758    -1.018958681449    12.000000000000
         C           -4.914521807942     1.427170957833    -1.019080654581    12.000000000000
         C            3.656787019679    -4.972959715401    -1.016748661635    12.000000000000
         C           -2.478138530106     5.653569933366    -1.016625857511    12.000000000000
         C           -3.693141738564    -3.542794708141    -1.016183092449    12.000000000000
         C           -4.914512483053    -1.427185489190    -1.016150159680    12.000000000000
         C           -0.000006008926    -5.650442776176    -1.017489740049    12.000000000000
         C           -4.893020484101     2.825184109757    -1.017951013090    12.000000000000
         C            2.478125993298    -5.653578033051    -1.017839262428    12.000000000000
         C           -3.656798710258     4.972951692879    -1.018022481795    12.000000000000
         C           -4.892999478856    -2.825196256222    -1.017483815032    12.000000000000
         C           -2.478128498083    -5.653570659169    -1.018114450075    12.000000000000
         C           -6.134770503331     0.680544277094    -1.018413376741    12.000000000000
         C           -3.656788833189    -4.972948512133    -1.016962949452    12.000000000000
         C           -6.134765042913    -0.680558404644    -1.017142980318    12.000000000000
         H            5.835288495816     3.369271405792    -1.013581605567     1.007825032230
         H            7.073859172747     1.228212759737    -1.017926181645     1.007825032230
         H            4.600663264174     5.512376313291    -1.017693961417     1.007825032230
         H            5.835283387305    -3.369310545891    -1.021784246649     1.007825032230
         H           -0.000012151306     6.738526184974    -1.021443480936     1.007825032230
         H            7.073861171831    -1.228231431906    -1.017631242617     1.007825032230
         H            2.473313731799     6.740679802232    -1.017377103450     1.007825032230
         H            4.600668491381    -5.512380618338    -1.017158658804     1.007825032230
         H           -2.473318680537     6.740677230444    -1.017075756825     1.007825032230
         H           -0.000010268228    -6.738532665614    -1.012960055065     1.007825032230
         H           -5.835301914343     3.369266461134    -1.013445583419     1.007825032230
         H            2.473307923831    -6.740689863591    -1.017268932003     1.007825032230
         H           -4.600674841208     5.512373537441    -1.017528633094     1.007825032230
         H           -5.835279506835    -3.369293452942    -1.022063552529     1.007825032230
         H           -2.473300347440    -6.740683567302    -1.017718248547     1.007825032230
         H           -7.073857766768     1.228215983678    -1.018010173126     1.007825032230
         H           -4.600673786085    -5.512367158949    -1.017330966826     1.007825032230
         H           -7.073856934409    -1.228225121139    -1.017726099083     1.007825032230

  Charge       = 0
  Multiplicity = 1
  Basis Set: JUN-CC-PVDZ
    Blend: JUN-CC-PVDZ
  Basis Set: (JUN-CC-PVDZ AUX)
    Blend: JUN-CC-PVDZ-JKFIT

    Orbital Energies [Eh]
    ---------------------

    Doubly Occupied:

       1A    -11.260677     2A    -11.260234     3A    -11.260232
       4A    -11.259522     5A    -11.259522     6A    -11.259352
       7A    -11.259143     8A    -11.259065     9A    -11.259064
      10A    -11.258739    11A    -11.258736    12A    -11.258666
      13A    -11.258604    14A    -11.258599    15A    -11.258596
      16A    -11.258567    17A    -11.258561    18A    -11.258545
      19A    -11.258532    20A    -11.258527    21A    -11.258521
      22A    -11.258424    23A    -11.258420    24A    -11.258122
      25A    -11.257462    26A    -11.257400    27A    -11.257399
      28A    -11.257264    29A    -11.257264    30A    -11.257180
      31A    -11.256557    32A    -11.256486    33A    -11.256486
      34A    -11.256376    35A    -11.256376    36A    -11.256329
      37A    -11.252402    38A    -11.252402    39A    -11.252400
      40A    -11.252399    41A    -11.252397    42A    -11.252395
      43A    -11.251537    44A    -11.251534    45A    -11.251533
      46A    -11.251528    47A    -11.251527    48A    -11.251523
      49A    -11.250964    50A    -11.250963    51A    -11.250961
      52A    -11.250959    53A    -11.250958    54A    -11.250956
      55A     -1.244301    56A     -1.220019    57A     -1.220018
      58A     -1.189727    59A     -1.189719    60A     -1.181171
      61A     -1.157726    62A     -1.149158    63A     -1.135710
      64A     -1.135703    65A     -1.113359    66A     -1.113355
      67A     -1.082633    68A     -1.082626    69A     -1.078817
      70A     -1.066143    71A     -1.066139    72A     -1.039582
      73A     -1.024494    74A     -1.021999    75A     -1.021956
      76A     -1.017891    77A     -1.012953    78A     -0.987225
      79A     -0.987179    80A     -0.962053    81A     -0.962003
      82A     -0.894472    83A     -0.894445    84A     -0.888171
      85A     -0.886417    86A     -0.886359    87A     -0.881605
      88A     -0.881557    89A     -0.862077    90A     -0.837555
      91A     -0.818394    92A     -0.816837    93A     -0.812344
      94A     -0.812335    95A     -0.794859    96A     -0.794848
      97A     -0.746843    98A     -0.745070    99A     -0.733638
     100A     -0.733629   101A     -0.732357   102A     -0.732333
     103A     -0.716705   104A     -0.699154   105A     -0.699143
     106A     -0.693780   107A     -0.693764   108A     -0.661404
     109A     -0.653339   110A     -0.651384   111A     -0.650421
     112A     -0.650415   113A     -0.639533   114A     -0.639531
     115A     -0.629918   116A     -0.627730   117A     -0.627714
     118A     -0.606458   119A     -0.605937   120A     -0.601871
     121A     -0.599924   122A     -0.599892   123A     -0.593827
     124A     -0.591460   125A     -0.591449   126A     -0.585423
     127A     -0.576419   128A     -0.576415   129A     -0.567482
     130A     -0.567468   131A     -0.566171   132A     -0.566151
     133A     -0.558946   134A     -0.555027   135A     -0.555021
     136A     -0.538764   137A     -0.538762   138A     -0.538291
     139A     -0.538285   140A     -0.529900   141A     -0.528208
     142A     -0.523055   143A     -0.523048   144A     -0.500672
     145A     -0.495722   146A     -0.493411   147A     -0.487950
     148A     -0.485271   149A     -0.481952   150A     -0.481944
     151A     -0.470441   152A     -0.470423   153A     -0.451257
     154A     -0.451179   155A     -0.439192   156A     -0.439182
     157A     -0.404872   158A     -0.404850   159A     -0.403493
     160A     -0.375546   161A     -0.375543   162A     -0.349250
     163A     -0.337719   164A     -0.336687   165A     -0.336629
     166A     -0.311227   167A     -0.298213   168A     -0.284484
     169A     -0.284430   170A     -0.225052   171A     -0.224986

  @DF-RHF Final Energy: -2055.89163443612279

   => Energetics <=

    Nuclear Repulsion Energy =           6452.5568002797772351
    One-Electron Energy =              -15636.4251016215421259
    Two-Electron Energy =                7127.9766669056416504
    Total Energy =                      -2055.8916344361232404
 Dipole X            :          0.0000994           -0.0000085            0.0000909
 Dipole Y            :          0.0028648           -0.0028843           -0.0000195
 Dipole Z            :        657.6285987         -657.6292844           -0.0006857
 Magnitude           :                                                    0.0006919

    SAPT Results
  --------------------------------------------------------------------------------------------------------
    Electrostatics                 -5.52881428 [mEh]      -3.46938334 [kcal/mol]     -14.51589990 [kJ/mol]
      Elst10,r                     -5.52881428 [mEh]      -3.46938334 [kcal/mol]     -14.51589990 [kJ/mol]

    Exchange                       -0.00010255 [mEh]      -0.00006435 [kcal/mol]      -0.00026925 [kJ/mol]
      Exch10                       -0.00010255 [mEh]      -0.00006435 [kcal/mol]      -0.00026925 [kJ/mol]
      Exch10(S^2)                  -0.00010255 [mEh]      -0.00006435 [kcal/mol]      -0.00026925 [kJ/mol]

    Induction                      -1.24813742 [mEh]      -0.78321805 [kcal/mol]      -3.27698434 [kJ/mol]
      Ind20,r                      -1.23653916 [mEh]      -0.77594004 [kcal/mol]      -3.24653311 [kJ/mol]
      Exch-Ind20,r                  0.00005228 [mEh]       0.00003281 [kcal/mol]       0.00013727 [kJ/mol]
      delta HF,r (2)               -0.01165054 [mEh]      -0.00731083 [kcal/mol]      -0.03058849 [kJ/mol]

    Dispersion                     -0.62719856 [mEh]      -0.39357304 [kcal/mol]      -1.64670958 [kJ/mol]
      Disp20                       -0.62721902 [mEh]      -0.39358588 [kcal/mol]      -1.64676330 [kJ/mol]
      Exch-Disp20                   0.00002046 [mEh]       0.00001284 [kcal/mol]       0.00005372 [kJ/mol]
      Disp20 (SS)                  -0.31360951 [mEh]      -0.19679294 [kcal/mol]      -0.82338165 [kJ/mol]
      Disp20 (OS)                  -0.31360951 [mEh]      -0.19679294 [kcal/mol]      -0.82338165 [kJ/mol]
      Exch-Disp20 (SS)              0.00001540 [mEh]       0.00000966 [kcal/mol]       0.00004043 [kJ/mol]
      Exch-Disp20 (OS)              0.00000506 [mEh]       0.00000318 [kcal/mol]       0.00001329 [kJ/mol]

  Total HF                         -6.77705425 [mEh]      -4.25266575 [kcal/mol]     -17.79315349 [kJ/mol]
  Total SAPT0                      -7.40425281 [mEh]      -4.64623878 [kcal/mol]     -19.43986308 [kJ/mol]

  Special recipe for scaled SAPT0 (see Manual):
    Electrostatics sSAPT0          -5.52881428 [mEh]      -3.46938334 [kcal/mol]     -14.51589990 [kJ/mol]
    Exchange sSAPT0                -0.00010255 [mEh]      -0.00006435 [kcal/mol]      -0.00026925 [kJ/mol]
    Induction sSAPT0               -1.24813742 [mEh]      -0.78321805 [kcal/mol]      -3.27698434 [kJ/mol]
    Dispersion sSAPT0              -0.62719856 [mEh]      -0.39357304 [kcal/mol]      -1.64670958 [kJ/mol]
  Total sSAPT0                     -7.40425281 [mEh]      -4.64623878 [kcal/mol]     -19.43986308 [kJ/mol]
  --------------------------------------------------------------------------------------------------------

*** Psi4 exiting successfully. Buy a developer a beer!
