                               Psi4 1.9 release

  ==> Input File <==

--------------------------------------------------------------------------
memory 64 GB # how much memory is available ! Depends on the nodes/cores !

molecule dimer {
# monomer A
+1 1    # Charge and multiplicity
C  0.680067 1.417258 -8.215929
C -0.680504 1.419286 -8.215545
N -1.085635 1.420284 -6.897221
C  0.000108 1.423560 -6.115820
C -2.477365 1.469690 -6.429242
N  1.085222 1.420284 -6.897221
H  1.385146 1.409430 -9.033368
H -1.385302 1.419096 -9.033214
H -0.000009 1.425307 -5.034731
C  2.478117 1.403392 -6.432123
H  2.490592 1.430737 -5.341870
H  2.967028 0.489946 -6.779299
H  3.001428 2.278875 -6.823595
H -2.857359 2.491761 -6.509201
H -3.082679 0.799606 -7.042306
H -2.518128 1.142706 -5.389294
--
# monomer B
0 1     # Charge and multiplicity
C   -3.66844126402057      7.80375217008252      0.00190004133558
C   -4.84759871934653      7.13124183134024     -0.00046653359696
C   -4.89495929917518      5.69633040353158     -0.00103944469517
C   -3.65374067877320      4.98073034095895      0.00662099703436
C   -2.40942512149445      7.11398103667468      0.00209438359570
C   -2.42547734410473      5.68112195090346     -0.00491050527438
C   -1.19474401643570      7.78614419430947      0.00356656413763
C   0.03795902893699      7.09942164575698      0.00139585983271
C   0.03033258741920      5.66948955970466     -0.00408752508301
C   -1.20098450790502      4.96927034791531      0.00488220885047
C   1.27795782581485      7.77285944319479      0.00277170839332
C   2.48535808472416      7.08769688523756      0.00049722048857
C   2.48612868491717      5.65477081024076     -0.00644052849921
C   1.25408291964399      4.95607811366431      0.00518741308898
C   3.75171459140595      7.76391215098033      0.00062407186893
C   4.92356605618520      7.07878077698995     -0.00143240883900
C   4.95560727132542      5.64344746336949     -0.00159282164606
C   3.70680153420475      4.94121020833308      0.00349873852374
H   -3.65852113775815      8.89082741913536      0.00358502958574
H   -1.18921332975660      8.87412108735996      0.00753844057883
H   1.28429423888630      8.86083343548850      0.00693053253426
H   3.75354208679975      8.85103527897216      0.00214659618464
H   5.86995870320703      7.61379483465560     -0.00235777588134
H   -5.78823170750226      7.67630221293400     -0.00202638095293
C   -6.09197395869619      4.99326001364347     -0.00291168518608
C   -6.12866148031747      3.58258016879823     -0.00171050815740
C   -3.66457974004527      3.56418217974434     -0.00463560277484
C   -4.89429820469869      2.86108077590057      0.00453338221034
C   -2.43733499489796      2.84761165708481      0.00719617576166
C   -1.20922785759670      3.54788693497833     -0.00648285103018
C   1.24714157216223      3.53468075142962     -0.00729145743546
C   0.01517603956900      2.83311183930540      0.00439272578912
C   2.46764517244071      2.82128997725533      0.00449278391269
C   3.70254947457969      3.52466015442405     -0.00899517692985
C   6.14498038638375      4.92757236613191     -0.00282626685777
C   6.16658835886151      3.51658447594213     -0.00065971342101
C   4.92460995845939      2.80840792535402      0.00587903281610
H   7.08990550964105      5.46688776622306     -0.00658814770723
H   -7.03104175110130      5.54268795285765     -0.00714490013730
C   -7.33969804112295      2.85841153457957     -0.00333767559888
C   -7.36488195805880      1.47032337158330     -0.00157213747140
C   -4.90350460894690      1.44442681216000     -0.00628840166334
C   -6.13225715261081      0.73993935705394      0.00600164231964
C   -3.67687480051673      0.72669714267312      0.00433931473643
C   -2.44565658606518      1.42964113326212     -0.00597039546461
C   -1.22360068130162      0.71532450163492      0.00545886906656
C   0.00763786931376      1.41738314923765      0.00392452278437
C   1.23121980774686      0.70211669058719     -0.01490206287210
C   2.46082110053113      1.40329203612573      0.00460244601878
C   3.68443025419614      0.68719842821222      0.00377365974158
C   4.91870890153864      1.39173456118907     -0.00862816189375
C   7.36980207796101      2.77948220318441     -0.00242013321349
C   7.38016266612146      1.39121750785509     -0.00087345036788
C   6.13979953912259      0.67411862320065      0.00545489144369
H   -8.27919079934664      3.40711804112415     -0.00763522772059
H   8.31511347147953      3.31811809662368     -0.00663070901292
C   -8.59175593758115      0.72483255304480     -0.00123170985383
C   -8.59902460370342     -0.63263980622873      0.00089141472904
C   -6.13981313911873     -0.67413663715361     -0.00609792660607
C   -7.38018411213749     -1.39126618958160      0.00131813493501
C   -4.91868448025621     -1.39175501803000      0.00624257154343
C   -3.68443829568458     -0.68723731573599     -0.00478966852105
C   -2.46081704024768     -1.40334517882457      0.00575341766833
C   -1.23116201232071     -0.70217386488055     -0.00636696112346
C   -0.00756962538737     -1.41741884941102      0.00108956317991
C   1.22364771588843     -0.71527537726392      0.01109518512883
C   2.44567064933149     -1.42964328900682     -0.00065482763106
C   3.67686670284649     -0.72670743155550     -0.00479541202602
C   6.13224884641929     -0.73997883984993     -0.00632338623858
C   4.90351914550401     -1.44445752054090      0.00751768830159
C   8.59901484869081      0.63260386666793     -0.00101133422380
C   8.59174548810050     -0.72485086719319      0.00072504603735
C   7.36486276438985     -1.47033266560598      0.00049486934466
H   -9.52830597181814      1.27684744919284     -0.00270163681798
H   9.54141097460619      1.17457248844457     -0.00206336648518
C   -7.36983790976868     -2.77954514593389      0.00312634335708
C   -4.92459910905015     -2.80843725734101     -0.00460528907921
C   -6.16662249566744     -3.51665219282533      0.00169655107992
C   -3.70251035970491     -3.52468154912026      0.00571878010666
C   -2.46764698511392     -2.82132596280400     -0.00632585824990
C   -0.01513347410770     -2.83314164539971     -0.00604426974092
C   -1.24712184122656     -3.53473217556300      0.00551968366725
C   1.20924506964357     -3.54791467864352      0.00805871345849
C   2.43733602215464     -2.84764173817541     -0.00608104485234
C   4.89430234377080     -2.86112296828604     -0.00526030478103
C   3.66461525504104     -3.56421984553201      0.00761911515957
C   6.12863901474565     -3.58258405771778      0.00096495711699
C   7.33967266469532     -2.85841330737039      0.00248018319869
H   -9.54144911125902     -1.17456346666430      0.00226083090216
H   9.52826186807155     -1.27691907390448      0.00197485379837
H   -8.31516504384864     -3.31814985321231      0.00729857188773
H   8.27915514249207     -3.40714078989363      0.00681973918158
C   -6.14499418870218     -4.92764727278338      0.00302254913999
C   -3.70678334799751     -4.94126171411716     -0.00679841894792
C   -4.95559005800169     -5.64349397349412      0.00116871569699
C   -2.48612132622665     -5.65478557440947      0.00614125209662
C   -1.25405833548005     -4.95612205000132     -0.00503435388927
C   1.20101257386816     -4.96928038819302     -0.00385322963129
C   -0.03033667441341     -5.66952030313900      0.00398997003238
C   3.65375010132847     -4.98074377541453     -0.00309522988330
C   2.42549269587528     -5.68117463552727      0.00628170066869
C   6.09196561781097     -4.99325796338655      0.00325918379042
C   4.89497644461045     -5.69634842095790      0.00202298796027
H   -7.08989238804069     -5.46699984223871      0.00742531082125
H   7.03105520920009     -5.54265853633254      0.00683896355417
C   -4.92354532219813     -7.07882109967734      0.00061394679214
C   -2.48534208823777     -7.08772807792913     -0.00189594564379
C   -3.75168589177895     -7.76394715763627     -0.00170126671874
C   -0.03794895698805     -7.09946487446944     -0.00168022049625
C   -1.27795610040136     -7.77290438466689     -0.00366491325785
C   2.40944432072629     -7.11402201200282     -0.00081701968533
C   1.19474993715296     -7.78618536556242     -0.00296931056689
C   4.84762105249800     -7.13126211057943      0.00168979497423
C   3.66847160587561     -7.80378799294376     -0.00065863938960
H   -5.86994035041618     -7.61383059804164      0.00215798365757
H   5.78824962538815     -7.67633218931421      0.00281691445618
H   -3.75352693944918     -8.85107156923607     -0.00353718114765
H   -1.28430440589466     -8.86087539249706     -0.00809229711623
H   1.18922157469537     -8.87416062058945     -0.00706194725726
H   3.65854661482387     -8.89086063405326     -0.00231318081200

    units angstrom      # Angstroms are the default
    no_reorient         # Geometry fixed, default
    symmetry c1         # C1 symmetry, default
}

set {
    scf_type DF         # Density fitting, faster than exact integrals
    freeze_core True    # Freeze core electrons
    basis jun-cc-pVDZ   # Jun-cc-pVDZ basis set, recommended for sSAPT0 in https://doi.org/10.1063/1.4867135
}

energy('ssapt0')        # Compute sSAPT0 energy, includes also SAPT0
--------------------------------------------------------------------------

  //              Dimer HF             //
    Molecular point group: c1
  Charge       = 1
  Multiplicity = 1
  Basis Set: JUN-CC-PVDZ
    Blend: JUN-CC-PVDZ
  Basis Set: (JUN-CC-PVDZ AUX)
    Blend: JUN-CC-PVDZ-JKFIT
  @DF-RHF Final Energy: -3953.64765291068943
    Total Energy =                      -3953.6476529106876114
 Dipole X            :         -0.0025458            0.0004804           -0.0020654
 Dipole Y            :         -6.8807343            8.7122315            1.8314972
 Dipole Z            :         29.9650510          -40.6262058          -10.6611549
 Magnitude           :                                                   10.8173291
  //            Monomer A HF           //
    Molecular point group: c1
  Multiplicity = 1
  Basis Set: JUN-CC-PVDZ
    Blend: JUN-CC-PVDZ
  Basis Set: (JUN-CC-PVDZ AUX)
    Blend: JUN-CC-PVDZ-JKFIT
  @DF-RHF Final Energy:  -303.29727347717994
    Total Energy =                       -303.2972734771799423
  //            Monomer B HF           //
    Molecular point group: c1

    Geometry (in Angstrom), charge = 0, multiplicity = 1:

       Center              X                  Y                   Z               Mass
    ------------   -----------------  -----------------  -----------------  -----------------
      Gh(C)           0.680062820275     1.308604348936    -7.682238848697    12.000000000000
      Gh(C)          -0.680508179725     1.310632348936    -7.681854848697    12.000000000000
      Gh(N)          -1.085639179725     1.311630348936    -6.363530848697    14.003074004430
      Gh(C)           0.000103820275     1.314906348936    -5.582129848697    12.000000000000
      Gh(C)          -2.477369179725     1.361036348936    -5.895551848697    12.000000000000
      Gh(N)           1.085217820275     1.311630348936    -6.363530848697    14.003074004430
      Gh(H)           1.385141820275     1.300776348936    -8.499677848697     1.007825032230
      Gh(H)          -1.385306179725     1.310442348936    -8.499523848697     1.007825032230
      Gh(H)          -0.000013179725     1.316653348936    -4.501040848697     1.007825032230
      Gh(C)           2.478112820275     1.294738348936    -5.898432848697    12.000000000000
      Gh(H)           2.490587820275     1.322083348936    -4.808179848697     1.007825032230
      Gh(H)           2.967023820275     0.381292348936    -6.245608848697     1.007825032230
      Gh(H)           3.001423820275     2.170221348936    -6.289904848697     1.007825032230
      Gh(H)          -2.857363179725     2.383107348936    -5.975510848697     1.007825032230
      Gh(H)          -3.082683179725     0.690952348936    -6.508615848697     1.007825032230
      Gh(H)          -2.518132179725     1.034052348936    -4.855603848697     1.007825032230
         C           -3.668445443746     7.695098519018     0.535590192639    12.000000000000
         C           -4.847602899072     7.022588180276     0.533223617706    12.000000000000
         C           -4.894963478901     5.587676752467     0.532650706608    12.000000000000
         C           -3.653744858499     4.872076689895     0.540311148338    12.000000000000
         C           -2.409429301220     7.005327385610     0.535784534899    12.000000000000
         C           -2.425481523830     5.572468299839     0.528779646029    12.000000000000
         C           -1.194748196161     7.677490543245     0.537256715441    12.000000000000
         C            0.037954849212     6.990767994693     0.535086011136    12.000000000000
         C            0.030328407694     5.560835908640     0.529602626220    12.000000000000
         C           -1.200988687630     4.860616696851     0.538572360154    12.000000000000
         C            1.277953646089     7.664205792130     0.536461859697    12.000000000000
         C            2.485353904999     6.979043234173     0.534187371792    12.000000000000
         C            2.486124505192     5.546117159176     0.527249622804    12.000000000000
         C            1.254078739919     4.847424462600     0.538877564392    12.000000000000
         C            3.751710411681     7.655258499916     0.534314223172    12.000000000000
         C            4.923561876460     6.970127125926     0.532257742464    12.000000000000
         C            4.955603091600     5.534793812305     0.532097329657    12.000000000000
         C            3.706797354479     4.832556557269     0.537188889827    12.000000000000
         H           -3.658525317484     8.782173768071     0.537275180889     1.007825032230
         H           -1.189217509482     8.765467436296     0.541228591882     1.007825032230
         H            1.284290059161     8.752179784424     0.540620683838     1.007825032230
         H            3.753537907074     8.742381627908     0.535836747488     1.007825032230
         H            5.869954523482     7.505141183591     0.531332375422     1.007825032230
         H           -5.788235887228     7.567648561870     0.531663770350     1.007825032230
         C           -6.091978138422     4.884606362579     0.530778466117    12.000000000000
         C           -6.128665660043     3.473926517734     0.531979643146    12.000000000000
         C           -3.664583919771     3.455528528680     0.529054548528    12.000000000000
         C           -4.894302384424     2.752427124836     0.538223533514    12.000000000000
         C           -2.437339174623     2.738958006020     0.540886327065    12.000000000000
         C           -1.209232037322     3.439233283914     0.527207300273    12.000000000000
         C            1.247137392437     3.426027100365     0.526398693868    12.000000000000
         C            0.015171859844     2.724458188241     0.538082877092    12.000000000000
         C            2.467640992715     2.712636326191     0.538182935216    12.000000000000
         C            3.702545294854     3.416006503360     0.524694974373    12.000000000000
         C            6.144976206658     4.818918715067     0.530863884446    12.000000000000
         C            6.166584179136     3.407930824878     0.533030437882    12.000000000000
         C            4.924605778734     2.699754274290     0.539569184119    12.000000000000
         H            7.089901329916     5.358234115159     0.527102003596     1.007825032230
         H           -7.031045930827     5.434034301793     0.526545251166     1.007825032230
         C           -7.339702220848     2.749757883515     0.530352475704    12.000000000000
         C           -7.364886137784     1.361669720519     0.532118013832    12.000000000000
         C           -4.903508788672     1.335773161096     0.527401749640    12.000000000000
         C           -6.132261332336     0.631285705989     0.539691793623    12.000000000000
         C           -3.676878980242     0.618043491609     0.538029466040    12.000000000000
         C           -2.445660765791     1.320987482198     0.527719755839    12.000000000000
         C           -1.223604861027     0.606670850570     0.539149020370    12.000000000000
         C            0.007633689588     1.308729498173     0.537614674088    12.000000000000
         C            1.231215628021     0.593463039523     0.518788088431    12.000000000000
         C            2.460816920806     1.294638385061     0.538292597322    12.000000000000
         C            3.684426074471     0.578544777148     0.537463811045    12.000000000000
         C            4.918704721813     1.283080910125     0.525061989410    12.000000000000
         C            7.369797898236     2.670828552120     0.531270018090    12.000000000000
         C            7.380158486396     1.282563856791     0.532816700935    12.000000000000
         C            6.139795359397     0.565464972136     0.539145042747    12.000000000000
         H           -8.279194979072     3.298464390060     0.526054923583     1.007825032230
         H            8.315109291754     3.209464445559     0.527059442290     1.007825032230
         C           -8.591760117307     0.616178901980     0.532458441450    12.000000000000
         C           -8.599028783429    -0.741293457293     0.534581566032    12.000000000000
         C           -6.139817318844    -0.782790288218     0.527592224697    12.000000000000
         C           -7.380188291863    -1.499919840646     0.535008286238    12.000000000000
         C           -4.918688659982    -1.500408669094     0.539932722847    12.000000000000
         C           -3.684442475410    -0.795890966800     0.528900482782    12.000000000000
         C           -2.460821219973    -1.511998829889     0.539443568972    12.000000000000
         C           -1.231166192046    -0.810827515945     0.527323190180    12.000000000000
         C           -0.007573805113    -1.526072500475     0.534779714483    12.000000000000
         C            1.223643536163    -0.823929028328     0.544785336432    12.000000000000
         C            2.445666469606    -1.538296940071     0.533035323672    12.000000000000
         C            3.676862523121    -0.835361082620     0.528894739277    12.000000000000
         C            6.132244666694    -0.848632490914     0.527366765065    12.000000000000
         C            4.903514965779    -1.553111171605     0.541207839605    12.000000000000
         C            8.599010668965     0.523950215603     0.532678817080    12.000000000000
         C            8.591741308375    -0.833504518258     0.534415197341    12.000000000000
         C            7.364858584664    -1.578986316670     0.534185020648    12.000000000000
         H           -9.528310151544     1.168193798128     0.530988514485     1.007825032230
         H            9.541406794881     1.065918837380     0.531626784818     1.007825032230
         C           -7.369842089494    -2.888198796998     0.536816494660    12.000000000000
         C           -4.924603288776    -2.917090908405     0.529084862224    12.000000000000
         C           -6.166626675393    -3.625305843890     0.535386702383    12.000000000000
         C           -3.702514539430    -3.633335200185     0.539408931410    12.000000000000
         C           -2.467651164839    -2.929979613868     0.527364293053    12.000000000000
         C           -0.015137653833    -2.941795296464     0.527645881562    12.000000000000
         C           -1.247126020952    -3.643385826627     0.539209834971    12.000000000000
         C            1.209240889918    -3.656568329708     0.541748864762    12.000000000000
         C            2.437331842429    -2.956295389240     0.527609106451    12.000000000000
         C            4.894298164045    -2.969776619350     0.528429846522    12.000000000000
         C            3.664611075316    -3.672873496596     0.541309266463    12.000000000000
         C            6.128634835020    -3.691237708782     0.534655108420    12.000000000000
         C            7.339668484970    -2.967066958435     0.536170334502    12.000000000000
         H           -9.541453290984    -1.283217117729     0.535950982205     1.007825032230
         H            9.528257688346    -1.385572724969     0.535665005102     1.007825032230
         H           -8.315169223574    -3.426803504277     0.540988723191     1.007825032230
         H            8.279150962767    -3.515794440958     0.540509890485     1.007825032230
         C           -6.144998368428    -5.036300923848     0.536712700443    12.000000000000
         C           -3.706787527723    -5.049915365182     0.526891732355    12.000000000000
         C           -4.955594237727    -5.752147624559     0.534858867000    12.000000000000
         C           -2.486125505952    -5.763439225474     0.539831403400    12.000000000000
         C           -1.254062515205    -5.064775701066     0.528655797414    12.000000000000
         C            1.201008394143    -5.077934039257     0.529836921672    12.000000000000
         C           -0.030340854139    -5.778173954203     0.537680121336    12.000000000000
         C            3.653745921603    -5.089397426479     0.530594921420    12.000000000000
         C            2.425488516150    -5.789828286592     0.539971851972    12.000000000000
         C            6.091961438086    -5.101911614451     0.536949335094    12.000000000000
         C            4.894972264885    -5.805002072022     0.535713139264    12.000000000000
         H           -7.089896567766    -5.575653493303     0.541115462125     1.007825032230
         H            7.031051029475    -5.651312187397     0.540529114858     1.007825032230
         C           -4.923549501924    -7.187474750742     0.534304098095    12.000000000000
         C           -2.485346267963    -7.196381728994     0.531794205660    12.000000000000
         C           -3.751690071504    -7.872600808701     0.531988884585    12.000000000000
         C           -0.037953136713    -7.208118525534     0.532009930807    12.000000000000
         C           -1.277960280127    -7.881558035731     0.530025238045    12.000000000000
         C            2.409440141001    -7.222675663067     0.532873131618    12.000000000000
         C            1.194745757428    -7.894839016627     0.530720840736    12.000000000000
         C            4.847616872773    -7.239915761644     0.535379946278    12.000000000000
         C            3.668467426150    -7.912441644008     0.533031511914    12.000000000000
         H           -5.869944530142    -7.722484249106     0.535848134961     1.007825032230
         H            5.788245445663    -7.784985840379     0.536507065760     1.007825032230
         H           -3.753531119175    -8.959725220301     0.530152970156     1.007825032230
         H           -1.284308585620    -8.969529043562     0.525597854187     1.007825032230
         H            1.189217394970    -8.982814271654     0.526628204046     1.007825032230
         H            3.658542435098    -8.999514285118     0.531376970491     1.007825032230

  Charge       = 0
  Multiplicity = 1
  Basis Set: JUN-CC-PVDZ
    Blend: JUN-CC-PVDZ
  Basis Set: (JUN-CC-PVDZ AUX)
    Blend: JUN-CC-PVDZ-JKFIT

    Orbital Energies [Eh]
    ---------------------

    Doubly Occupied:

       1A    -11.264033     2A    -11.263718     3A    -11.263716
       4A    -11.263375     5A    -11.263371     6A    -11.263337
       7A    -11.263179     8A    -11.263154     9A    -11.263151
      10A    -11.262993    11A    -11.262835    12A    -11.262828
      13A    -11.262352    14A    -11.262347    15A    -11.262275
      16A    -11.262275    17A    -11.262223    18A    -11.262189
      19A    -11.262144    20A    -11.262106    21A    -11.262104
      22A    -11.261951    23A    -11.261947    24A    -11.261829
      25A    -11.261815    26A    -11.261799    27A    -11.261795
      28A    -11.261748    29A    -11.261741    30A    -11.261668
      31A    -11.261641    32A    -11.261638    33A    -11.261611
      34A    -11.261610    35A    -11.261589    36A    -11.261542
      37A    -11.261405    38A    -11.261395    39A    -11.261388
      40A    -11.261381    41A    -11.261376    42A    -11.261367
      43A    -11.261362    44A    -11.261348    45A    -11.261343
      46A    -11.261322    47A    -11.261316    48A    -11.261311
      49A    -11.261156    50A    -11.261124    51A    -11.261121
      52A    -11.261041    53A    -11.261039    54A    -11.260969
      55A    -11.260005    56A    -11.259990    57A    -11.259987
      58A    -11.259959    59A    -11.259957    60A    -11.259939
      61A    -11.259381    62A    -11.259355    63A    -11.259353
      64A    -11.259301    65A    -11.259299    66A    -11.259269
      67A    -11.259008    68A    -11.258990    69A    -11.258987
      70A    -11.258961    71A    -11.258958    72A    -11.258945
      73A    -11.254583    74A    -11.254581    75A    -11.254579
      76A    -11.254579    77A    -11.254571    78A    -11.254569
      79A    -11.253732    80A    -11.253729    81A    -11.253726
      82A    -11.253724    83A    -11.253723    84A    -11.253714
      85A    -11.253647    86A    -11.253644    87A    -11.253641
      88A    -11.253640    89A    -11.253639    90A    -11.253630
      91A    -11.253111    92A    -11.253109    93A    -11.253107
      94A    -11.253107    95A    -11.253098    96A    -11.253097
      97A     -1.254108    98A     -1.239122    99A     -1.239121
     100A     -1.220569   101A     -1.220564   102A     -1.215587
     103A     -1.201133   104A     -1.195701   105A     -1.188279
     106A     -1.188277   107A     -1.173852   108A     -1.173850
     109A     -1.155754   110A     -1.155750   111A     -1.152857
     112A     -1.144806   113A     -1.144803   114A     -1.128680
     115A     -1.114837   116A     -1.113248   117A     -1.112619
     118A     -1.112605   119A     -1.111698   120A     -1.088542
     121A     -1.088526   122A     -1.077044   123A     -1.077043
     124A     -1.067733   125A     -1.067703   126A     -1.065101
     127A     -1.046902   128A     -1.046894   129A     -1.040589
     130A     -1.038817   131A     -1.038816   132A     -1.025369
     133A     -1.021536   134A     -1.021486   135A     -1.007274
     136A     -1.006915   137A     -1.003893   138A     -1.000613
     139A     -1.000564   140A     -0.991153   141A     -0.971103
     142A     -0.971054   143A     -0.955975   144A     -0.955919
     145A     -0.905737   146A     -0.905695   147A     -0.905625
     148A     -0.905585   149A     -0.904490   150A     -0.892507
     151A     -0.892449   152A     -0.890494   153A     -0.890437
     154A     -0.889571   155A     -0.872305   156A     -0.869123
     157A     -0.851633   158A     -0.847990   159A     -0.847969
     160A     -0.845726   161A     -0.843132   162A     -0.834666
     163A     -0.834653   164A     -0.828199   165A     -0.828195
     166A     -0.784655   167A     -0.784644   168A     -0.783780
     169A     -0.783754   170A     -0.782399   171A     -0.782379
     172A     -0.782160   173A     -0.767090   174A     -0.760930
     175A     -0.750707   176A     -0.733571   177A     -0.727172
     178A     -0.727158   179A     -0.725195   180A     -0.724639
     181A     -0.724620   182A     -0.718633   183A     -0.713898
     184A     -0.713892   185A     -0.699675   186A     -0.699663
     187A     -0.686266   188A     -0.686043   189A     -0.686041
     190A     -0.682265   191A     -0.682255   192A     -0.678895
     193A     -0.653728   194A     -0.650975   195A     -0.650945
     196A     -0.649943   197A     -0.649929   198A     -0.649652
     199A     -0.641063   200A     -0.641036   201A     -0.640175
     202A     -0.639241   203A     -0.636139   204A     -0.636112
     205A     -0.629242   206A     -0.617706   207A     -0.615386
     208A     -0.615366   209A     -0.608895   210A     -0.608889
     211A     -0.599176   212A     -0.599144   213A     -0.598851
     214A     -0.598722   215A     -0.598697   216A     -0.598173
     217A     -0.595152   218A     -0.595140   219A     -0.594821
     220A     -0.594374   221A     -0.592067   222A     -0.592063
     223A     -0.587530   224A     -0.577863   225A     -0.577853
     226A     -0.575728   227A     -0.575723   228A     -0.573471
     229A     -0.569575   230A     -0.568271   231A     -0.568248
     232A     -0.566857   233A     -0.566847   234A     -0.560983
     235A     -0.558833   236A     -0.558813   237A     -0.558498
     238A     -0.554469   239A     -0.550618   240A     -0.547541
     241A     -0.544328   242A     -0.535029   243A     -0.534998
     244A     -0.533633   245A     -0.533611   246A     -0.528162
     247A     -0.528147   248A     -0.527928   249A     -0.517291
     250A     -0.517258   251A     -0.515412   252A     -0.515406
     253A     -0.509725   254A     -0.509709   255A     -0.498117
     256A     -0.496549   257A     -0.496521   258A     -0.493830
     259A     -0.493820   260A     -0.489466   261A     -0.481533
     262A     -0.477474   263A     -0.477472   264A     -0.474083
     265A     -0.469547   266A     -0.466626   267A     -0.466622
     268A     -0.458862   269A     -0.446829   270A     -0.446768
     271A     -0.441084   272A     -0.440812   273A     -0.440786
     274A     -0.434743   275A     -0.433959   276A     -0.407432
     277A     -0.407409   278A     -0.386468   279A     -0.386421
     280A     -0.385784   281A     -0.385783   282A     -0.383812
     283A     -0.354384   284A     -0.354367   285A     -0.350721
     286A     -0.338148   287A     -0.335648   288A     -0.335580
     289A     -0.332766   290A     -0.332760   291A     -0.307145
     292A     -0.302007   293A     -0.301946   294A     -0.300897
     295A     -0.286227   296A     -0.256515   297A     -0.253559
     298A     -0.253508   299A     -0.204318   300A     -0.204231

  @DF-RHF Final Energy: -3650.33804816611928

   => Energetics <=

    Nuclear Repulsion Energy =          15611.4211649754306563
    One-Electron Energy =              -36072.0907040568490629
    Two-Electron Energy =               16810.3314909153014014
    Total Energy =                      -3650.3380481661188242
 Dipole X            :         -0.0009121            0.0002112           -0.0007009
 Dipole Y            :        123.2137720         -123.2131634            0.0006086
 Dipole Z            :       -605.1136840          605.1203250            0.0066410
 Magnitude           :                                                    0.0067056

    SAPT Results
  --------------------------------------------------------------------------------------------------------
    Electrostatics                 -8.58191095 [mEh]      -5.38523042 [kcal/mol]     -22.53180409 [kJ/mol]
      Elst10,r                     -8.58191095 [mEh]      -5.38523042 [kcal/mol]     -22.53180409 [kJ/mol]

    Exchange                        0.00056637 [mEh]       0.00035540 [kcal/mol]       0.00148700 [kJ/mol]
      Exch10                        0.00056637 [mEh]       0.00035540 [kcal/mol]       0.00148700 [kJ/mol]
      Exch10(S^2)                   0.00056637 [mEh]       0.00035540 [kcal/mol]       0.00148700 [kJ/mol]

    Induction                      -3.74992281 [mEh]      -2.35311209 [kcal/mol]      -9.84542098 [kJ/mol]
      Ind20,r                      -3.67391376 [mEh]      -2.30541569 [kcal/mol]      -9.64585924 [kJ/mol]
      Exch-Ind20,r                  0.00104522 [mEh]       0.00065588 [kcal/mol]       0.00274422 [kJ/mol]
      delta HF,r (2)               -0.07705427 [mEh]      -0.04835228 [kcal/mol]      -0.20230596 [kJ/mol]

    Dispersion                     -1.85619534 [mEh]      -1.16478016 [kcal/mol]      -4.87344020 [kJ/mol]
      Disp20                       -1.85655410 [mEh]      -1.16500529 [kcal/mol]      -4.87438212 [kJ/mol]
      Exch-Disp20                   0.00035876 [mEh]       0.00022512 [kcal/mol]       0.00094192 [kJ/mol]
      Disp20 (SS)                  -0.92827705 [mEh]      -0.58250264 [kcal/mol]      -2.43719106 [kJ/mol]
      Disp20 (OS)                  -0.92827705 [mEh]      -0.58250264 [kcal/mol]      -2.43719106 [kJ/mol]
      Exch-Disp20 (SS)              0.00026623 [mEh]       0.00016706 [kcal/mol]       0.00069898 [kJ/mol]
      Exch-Disp20 (OS)              0.00009253 [mEh]       0.00005806 [kcal/mol]       0.00024293 [kJ/mol]

  Total HF                        -12.33126739 [mEh]      -7.73798711 [kcal/mol]     -32.37573807 [kJ/mol]
  Total SAPT0                     -14.18746273 [mEh]      -8.90276727 [kcal/mol]     -37.24917827 [kJ/mol]

  Special recipe for scaled SAPT0 (see Manual):
    Electrostatics sSAPT0          -8.58191095 [mEh]      -5.38523042 [kcal/mol]     -22.53180409 [kJ/mol]
    Exchange sSAPT0                 0.00056637 [mEh]       0.00035540 [kcal/mol]       0.00148700 [kJ/mol]
    Induction sSAPT0               -3.74992281 [mEh]      -2.35311209 [kcal/mol]      -9.84542098 [kJ/mol]
    Dispersion sSAPT0              -1.85619534 [mEh]      -1.16478016 [kcal/mol]      -4.87344020 [kJ/mol]
  Total sSAPT0                    -14.18746273 [mEh]      -8.90276727 [kcal/mol]     -37.24917827 [kJ/mol]
  --------------------------------------------------------------------------------------------------------

*** Psi4 exiting successfully. Buy a developer a beer!
