                               Psi4 1.9 release

  ==> Input File <==

--------------------------------------------------------------------------
memory 32 GB # how much memory is available ! Depends on the nodes/cores !

molecule dimer {
# monomer A
+1 1    # Charge and multiplicity
C  0.680067 -0.008042  -9.615929
C -0.680504 -0.006014  -9.615545
N -1.085635 -0.005016  -8.297221
C  0.000108 -0.001740  -7.515820
C -2.477365  0.044390  -7.829242
N  1.085222 -0.005016  -8.297221
H  1.385146 -0.015870 -10.433368
H -1.385302 -0.006204 -10.433214
H -0.000009  0.000007  -6.434731
C  2.478117 -0.021908  -7.832123
H  2.490592  0.005437  -6.741870
H  2.967028 -0.935354  -8.179299
H  3.001428  0.853575  -8.223595
H -2.857359  1.066461  -7.909201
H -3.082679 -0.625694  -8.442306
H -2.518128 -0.282594  -6.789294
--
# monomer B
0 1     # Charge and multiplicity
C   1.22531237526482      0.70753866091955      0.00613762728373
C   1.22532433589282     -0.70753852257020     -0.00619318228664
C   -0.00000567409046      1.41496628609039     -0.00672680580738
C   2.45644923379077      1.41832825917820      0.00902448468363
C   0.00001130712078     -1.41497612663474      0.00347275151708
C   -1.22530046906674      0.70754574598412      0.00838914760619
C   2.45643823516184     -1.41832293188077     -0.00843833914343
C   -0.00000085313587      2.83680140328112     -0.00913035594137
C   3.68182717731192      0.70931832800114     -0.00808954934571
C   2.45512052870677      2.83422403348893     -0.00819210630633
C   3.68182158506039     -0.70933346742900      0.00798293467272
C   -1.22531311884624     -0.70752714354401     -0.00512042085974
C   1.22670006104402      3.54346985599427      0.00816696660346
C   0.00000526469929     -2.83678176723568      0.00832091913869
C   -2.45643555300670      1.41831729028492      0.00842454345199
C   2.45512389762097     -2.83422965658853      0.00783102630520
C   -1.22671388474763      3.54346943575023      0.00827029982280
C   4.91451777504333      1.42717324448953     -0.00160886631602
C   3.69315067131765      3.54279566454522     -0.00155906667985
C   -2.45643712022637     -1.41831290883911     -0.00846337726810
C   1.22670532178455     -3.54347386990643     -0.00780316414624
C   -2.45512491866593      2.83421703463423     -0.00818572995999
C   4.91452486062398     -1.42718653794377      0.00136387641845
C   1.22142509354026      4.97013443726031      0.00150231067809
C   4.89300870916237      2.82518837202648     -0.00039219795739
C   -1.22669652864725     -3.54347062507680     -0.00753595973677
C   -3.68181849668397      0.70932533873199     -0.00807686886569
C   3.69314758099218     -3.54280096939050      0.00148176697923
C   -1.22143177215231      4.97012866986289      0.00168580605083
C   6.13477145276790      0.68054831910577     -0.00083909176631
C   3.65678936045204      4.97295361556775     -0.00065042889723
C   -2.45512642789169     -2.83421472106065      0.00758666850712
C   -3.68181869921921     -0.70932533146830      0.00810055625144
C   4.89301309775526     -2.82519973363176      0.00021895393805
C   -0.00000059327114      5.65044773803267      0.00045449734393
C   6.13477559217374     -0.68055448207492      0.00042622874941
C   2.47813196269732      5.65357712333155      0.00063835075260
C   1.22142288457925     -4.97012668293268     -0.00129718634452
C   -3.69316190412301      3.54279732619245     -0.00139355922051
C   -1.22142804110313     -4.97011793159564     -0.00140994817719
C   -4.91452132810043      1.42717581899491     -0.00153192130862
C   3.65678749952045     -4.97295485423912      0.00080007163680
C   -2.47813805026426      5.65357479452875      0.00092287576113
C   -3.69314125872231     -3.54278984697859      0.00136564082345
C   -4.91451200321153     -1.42718062802730      0.00139857359209
C   -0.00000552908399     -5.65043791501335      0.00005899322272
C   -4.89302000425900      2.82518897091939     -0.00040227981744
C   2.47812647313991     -5.65357317188818     -0.00029052915548
C   -3.65679823041642      4.97295655404175     -0.00047374852278
C   -4.89299899901461     -2.82519139505969      0.00006491824035
C   -2.47812801824129     -5.65356579800621     -0.00056571680280
C   -6.13477002348955      0.68054913825639     -0.00086464346868
C   -3.65678835334731     -4.97294365097028      0.00058578382008
C   -6.13476456307132     -0.68055354348201      0.00040575295444
H   5.83528897565761      3.36927626695423      0.00396712770529
H   7.07385965258860      1.22821762089947     -0.00037744837300
H   4.60066374401555      5.51238117445323     -0.00014522814529
H   5.83528386714679     -3.36930568472863     -0.00423551337640
H   -0.00001167146422      6.73853104613662     -0.00389474766392
H   7.07386165167227     -1.22822657074368     -0.00008250934481
H   2.47331421164041      6.74068466339473      0.00017162982210
H   4.60066897122302     -5.51237575717576      0.00039007446835
H   -2.47331820069565      6.74068209160650      0.00047297644710
H   -0.00000978838621     -6.73852780445195      0.00458867820736
H   -5.83530143450167      3.36927132229595      0.00410314985360
H   2.47330840367253     -6.74068500242887      0.00027980126949
H   -4.60067436136587      5.51237839860371      0.00002010017831
H   -5.83527902699321     -3.36928859177951     -0.00451481925734
H   -2.47329986759855     -6.74067870613986     -0.00016951527498
H   -7.07385728692578      1.22822084484047     -0.00046143985387
H   -4.60067330624313     -5.51236229778631      0.00021776644566
H   -7.07385645456741     -1.22822025997701     -0.00017736581114

    units angstrom      # Angstroms are the default
    no_reorient         # Geometry fixed, default
    symmetry c1         # C1 symmetry, default
}

set {
    scf_type DF         # Density fitting, faster than exact integrals
    freeze_core True    # Freeze core electrons
    basis jun-cc-pVDZ   # Jun-cc-pVDZ basis set, recommended for sSAPT0 in https://doi.org/10.1063/1.4867135
}

energy('ssapt0')        # Compute sSAPT0 energy, includes also SAPT0
--------------------------------------------------------------------------

  //              Dimer HF             //
    Molecular point group: c1
  Charge       = 1
  Multiplicity = 1
  Basis Set: JUN-CC-PVDZ
    Blend: JUN-CC-PVDZ
  Basis Set: (JUN-CC-PVDZ AUX)
    Blend: JUN-CC-PVDZ-JKFIT
  @DF-RHF Final Energy: -2359.19617299615084
    Total Energy =                      -2359.1961729961512901
 Dipole X            :         -0.0010622            0.0006313           -0.0004309
 Dipole Y            :         -0.0479018            0.0560211            0.0081193
 Dipole Z            :         29.2050449          -41.8996593          -12.6946144
 Magnitude           :                                                   12.6946170
  //            Monomer A HF           //
    Molecular point group: c1
  Multiplicity = 1
  Basis Set: JUN-CC-PVDZ
    Blend: JUN-CC-PVDZ
  Basis Set: (JUN-CC-PVDZ AUX)
    Blend: JUN-CC-PVDZ-JKFIT
  @DF-RHF Final Energy:  -303.29718626264480
    Total Energy =                       -303.2971862626448001
  //            Monomer B HF           //
    Molecular point group: c1

    Geometry (in Angstrom), charge = 0, multiplicity = 1:

       Center              X                  Y                   Z               Mass
    ------------   -----------------  -----------------  -----------------  -----------------
      Gh(C)           0.680066520158    -0.008042372515    -8.547502810735    12.000000000000
      Gh(C)          -0.680504479842    -0.006014372515    -8.547118810735    12.000000000000
      Gh(N)          -1.085635479842    -0.005016372515    -7.228794810735    14.003074004430
      Gh(C)           0.000107520158    -0.001740372515    -6.447393810735    12.000000000000
      Gh(C)          -2.477365479842     0.044389627485    -6.760815810735    12.000000000000
      Gh(N)           1.085221520158    -0.005016372515    -7.228794810735    14.003074004430
      Gh(H)           1.385145520158    -0.015870372515    -9.364941810735     1.007825032230
      Gh(H)          -1.385302479842    -0.006204372515    -9.364787810735     1.007825032230
      Gh(H)          -0.000009479842     0.000006627485    -5.366304810735     1.007825032230
      Gh(C)           2.478116520158    -0.021908372515    -6.763696810735    12.000000000000
      Gh(H)           2.490591520158     0.005436627485    -5.673443810735     1.007825032230
      Gh(H)           2.967027520158    -0.935354372515    -7.110872810735     1.007825032230
      Gh(H)           3.001427520158     0.853574627485    -7.155168810735     1.007825032230
      Gh(H)          -2.857359479842     1.066460627485    -6.840774810735     1.007825032230
      Gh(H)          -3.082679479842    -0.625694372515    -7.373879810735     1.007825032230
      Gh(H)          -2.518128479842    -0.282594372515    -5.720867810735     1.007825032230
         C            1.225311895423     0.707538288405     1.074563816548    12.000000000000
         C            1.225323856051    -0.707538895085     1.062233006978    12.000000000000
         C           -0.000006153932     1.414965913575     1.061699383457    12.000000000000
         C            2.456448753949     1.418327886663     1.077450673948    12.000000000000
         C            0.000010827279    -1.414976499150     1.071898940782    12.000000000000
         C           -1.225300948908     0.707545373469     1.076815336871    12.000000000000
         C            2.456437755320    -1.418323304396     1.059987850121    12.000000000000
         C           -0.000001332978     2.836801030766     1.059295833323    12.000000000000
         C            3.681826697470     0.709317955486     1.060336639919    12.000000000000
         C            2.455120048865     2.834223660974     1.060234082958    12.000000000000
         C            3.681821105219    -0.709333839944     1.076409123937    12.000000000000
         C           -1.225313598688    -0.707527516059     1.063305768405    12.000000000000
         C            1.226699581202     3.543469483479     1.076593155868    12.000000000000
         C            0.000004784858    -2.836782139751     1.076747108403    12.000000000000
         C           -2.456436032848     1.418316917770     1.076850732717    12.000000000000
         C            2.455123417779    -2.834230029103     1.076257215570    12.000000000000
         C           -1.226714364589     3.543469063235     1.076696489087    12.000000000000
         C            4.914517295202     1.427172871975     1.066817322949    12.000000000000
         C            3.693150191476     3.542795292030     1.066867122585    12.000000000000
         C           -2.456437600068    -1.418313281354     1.059962811997    12.000000000000
         C            1.226704841943    -3.543474242421     1.060623025118    12.000000000000
         C           -2.455125398508     2.834216662119     1.060240459305    12.000000000000
         C            4.914524380782    -1.427186910459     1.069790065683    12.000000000000
         C            1.221424613699     4.970134064745     1.069928499943    12.000000000000
         C            4.893008229321     2.825187999512     1.068033991307    12.000000000000
         C           -1.226697008489    -3.543470997592     1.060890229528    12.000000000000
         C           -3.681818976526     0.709324966217     1.060349320399    12.000000000000
         C            3.693147101150    -3.542801341905     1.069907956244    12.000000000000
         C           -1.221432251994     4.970128297348     1.070111995316    12.000000000000
         C            6.134770972926     0.680547946591     1.067587097498    12.000000000000
         C            3.656788880610     4.972953243053     1.067775760367    12.000000000000
         C           -2.455126907733    -2.834215093576     1.076012857772    12.000000000000
         C           -3.681819179061    -0.709325703983     1.076526745516    12.000000000000
         C            4.893012617914    -2.825200106147     1.068645143203    12.000000000000
         C           -0.000001073113     5.650447365518     1.068880686609    12.000000000000
         C            6.134775112332    -0.680554854590     1.068852418014    12.000000000000
         C            2.478131482856     5.653576750817     1.069064540017    12.000000000000
         C            1.221422404738    -4.970127055448     1.067129002920    12.000000000000
         C           -3.693162383965     3.542796953677     1.067032630044    12.000000000000
         C           -1.221428520945    -4.970118304111     1.067016241087    12.000000000000
         C           -4.914521807942     1.427175446480     1.066894267956    12.000000000000
         C            3.656787019679    -4.972955226754     1.069226260901    12.000000000000
         C           -2.478138530106     5.653574422014     1.069349065026    12.000000000000
         C           -3.693141738564    -3.542790219494     1.069791830088    12.000000000000
         C           -4.914512483053    -1.427181000542     1.069824762857    12.000000000000
         C           -0.000006008926    -5.650438287528     1.068485182487    12.000000000000
         C           -4.893020484101     2.825188598404     1.068023909447    12.000000000000
         C            2.478125993298    -5.653573544403     1.068135660109    12.000000000000
         C           -3.656798710258     4.972956181527     1.067952440742    12.000000000000
         C           -4.892999478856    -2.825191767575     1.068491107505    12.000000000000
         C           -2.478128498083    -5.653566170521     1.067860472462    12.000000000000
         C           -6.134770503331     0.680548765741     1.067561545796    12.000000000000
         C           -3.656788833189    -4.972944023485     1.069011973085    12.000000000000
         C           -6.134765042913    -0.680553915997     1.068831942219    12.000000000000
         H            5.835288495816     3.369275894439     1.072393316970     1.007825032230
         H            7.073859172747     1.228217248385     1.068048740892     1.007825032230
         H            4.600663264174     5.512380801938     1.068280961119     1.007825032230
         H            5.835283387305    -3.369306057244     1.064190675888     1.007825032230
         H           -0.000012151306     6.738530673622     1.064531441601     1.007825032230
         H            7.073861171831    -1.228226943259     1.068343679920     1.007825032230
         H            2.473313731799     6.740684290880     1.068597819087     1.007825032230
         H            4.600668491381    -5.512376129691     1.068816263733     1.007825032230
         H           -2.473318680537     6.740681719092     1.068899165712     1.007825032230
         H           -0.000010268228    -6.738528176967     1.073014867472     1.007825032230
         H           -5.835301914343     3.369270949781     1.072529339118     1.007825032230
         H            2.473307923831    -6.740685374944     1.068705990534     1.007825032230
         H           -4.600674841208     5.512378026089     1.068446289443     1.007825032230
         H           -5.835279506835    -3.369288964294     1.063911370007     1.007825032230
         H           -2.473300347440    -6.740679078655     1.068256673990     1.007825032230
         H           -7.073857766768     1.228220472326     1.067964749411     1.007825032230
         H           -4.600673786085    -5.512362670301     1.068643955710     1.007825032230
         H           -7.073856934409    -1.228220632492     1.068248823454     1.007825032230

  Charge       = 0
  Multiplicity = 1
  Basis Set: JUN-CC-PVDZ
    Blend: JUN-CC-PVDZ
  Basis Set: (JUN-CC-PVDZ AUX)
    Blend: JUN-CC-PVDZ-JKFIT

    Orbital Energies [Eh]
    ---------------------

    Doubly Occupied:

       1A    -11.260670     2A    -11.260227     3A    -11.260225
       4A    -11.259516     5A    -11.259516     6A    -11.259346
       7A    -11.259138     8A    -11.259060     9A    -11.259059
      10A    -11.258735    11A    -11.258731    12A    -11.258663
      13A    -11.258601    14A    -11.258595    15A    -11.258593
      16A    -11.258564    17A    -11.258558    18A    -11.258542
      19A    -11.258528    20A    -11.258523    21A    -11.258517
      22A    -11.258419    23A    -11.258415    24A    -11.258116
      25A    -11.257458    26A    -11.257396    27A    -11.257395
      28A    -11.257260    29A    -11.257260    30A    -11.257175
      31A    -11.256553    32A    -11.256482    33A    -11.256482
      34A    -11.256372    35A    -11.256372    36A    -11.256324
      37A    -11.252399    38A    -11.252399    39A    -11.252397
      40A    -11.252396    41A    -11.252393    42A    -11.252392
      43A    -11.251533    44A    -11.251531    45A    -11.251529
      46A    -11.251524    47A    -11.251523    48A    -11.251519
      49A    -11.250961    50A    -11.250960    51A    -11.250958
      52A    -11.250957    53A    -11.250954    54A    -11.250953
      55A     -1.244294    56A     -1.220014    57A     -1.220012
      58A     -1.189722    59A     -1.189715    60A     -1.181164
      61A     -1.157722    62A     -1.149154    63A     -1.135703
      64A     -1.135696    65A     -1.113355    66A     -1.113351
      67A     -1.082627    68A     -1.082620    69A     -1.078810
      70A     -1.066138    71A     -1.066134    72A     -1.039578
      73A     -1.024488    74A     -1.021991    75A     -1.021947
      76A     -1.017887    77A     -1.012949    78A     -0.987219
      79A     -0.987173    80A     -0.962048    81A     -0.961998
      82A     -0.894467    83A     -0.894440    84A     -0.888163
      85A     -0.886409    86A     -0.886352    87A     -0.881599
      88A     -0.881551    89A     -0.862073    90A     -0.837551
      91A     -0.818389    92A     -0.816830    93A     -0.812338
      94A     -0.812329    95A     -0.794854    96A     -0.794843
      97A     -0.746837    98A     -0.745063    99A     -0.733630
     100A     -0.733622   101A     -0.732352   102A     -0.732329
     103A     -0.716698   104A     -0.699149   105A     -0.699137
     106A     -0.693775   107A     -0.693758   108A     -0.661399
     109A     -0.653331   110A     -0.651377   111A     -0.650417
     112A     -0.650411   113A     -0.639529   114A     -0.639526
     115A     -0.629912   116A     -0.627723   117A     -0.627708
     118A     -0.606458   119A     -0.605934   120A     -0.601865
     121A     -0.599919   122A     -0.599886   123A     -0.593822
     124A     -0.591453   125A     -0.591440   126A     -0.585419
     127A     -0.576418   128A     -0.576414   129A     -0.567478
     130A     -0.567463   131A     -0.566163   132A     -0.566145
     133A     -0.558939   134A     -0.555022   135A     -0.555016
     136A     -0.538759   137A     -0.538757   138A     -0.538288
     139A     -0.538283   140A     -0.529895   141A     -0.528209
     142A     -0.523050   143A     -0.523043   144A     -0.500668
     145A     -0.495719   146A     -0.493406   147A     -0.487947
     148A     -0.485265   149A     -0.481946   150A     -0.481938
     151A     -0.470436   152A     -0.470421   153A     -0.451249
     154A     -0.451172   155A     -0.439189   156A     -0.439179
     157A     -0.404869   158A     -0.404846   159A     -0.403490
     160A     -0.375543   161A     -0.375540   162A     -0.349247
     163A     -0.337714   164A     -0.336681   165A     -0.336625
     166A     -0.311224   167A     -0.298211   168A     -0.284480
     169A     -0.284426   170A     -0.225048   171A     -0.224983

  @DF-RHF Final Energy: -2055.89167151862057

   => Energetics <=

    Nuclear Repulsion Energy =           6452.5568002797781446
    One-Electron Energy =              -15636.4268033441549051
    Two-Electron Energy =                7127.9783315457571007
    Total Energy =                      -2055.8916715186205693
 Dipole X            :          0.0001062           -0.0000085            0.0000977
 Dipole Y            :         -0.0000289            0.0000167           -0.0000122
 Dipole Z            :       -690.5063602          690.5078030            0.0014428
 Magnitude           :                                                    0.0014462

    SAPT Results
  --------------------------------------------------------------------------------------------------------
    Electrostatics                 -5.86002151 [mEh]      -3.67721901 [kcal/mol]     -15.38548436 [kJ/mol]
      Elst10,r                     -5.86002151 [mEh]      -3.67721901 [kcal/mol]     -15.38548436 [kJ/mol]

    Exchange                       -0.00013632 [mEh]      -0.00008554 [kcal/mol]      -0.00035790 [kJ/mol]
      Exch10                       -0.00013632 [mEh]      -0.00008554 [kcal/mol]      -0.00035790 [kJ/mol]
      Exch10(S^2)                  -0.00013632 [mEh]      -0.00008554 [kcal/mol]      -0.00035790 [kJ/mol]

    Induction                      -1.45505706 [mEh]      -0.91306209 [kcal/mol]      -3.82025177 [kJ/mol]
      Ind20,r                      -1.43656185 [mEh]      -0.90145617 [kcal/mol]      -3.77169263 [kJ/mol]
      Exch-Ind20,r                  0.00004587 [mEh]       0.00002878 [kcal/mol]       0.00012043 [kJ/mol]
      delta HF,r (2)               -0.01854107 [mEh]      -0.01163470 [kcal/mol]      -0.04867958 [kJ/mol]

    Dispersion                     -0.60211669 [mEh]      -0.37783393 [kcal/mol]      -1.58085716 [kJ/mol]
      Disp20                       -0.60214022 [mEh]      -0.37784869 [kcal/mol]      -1.58091893 [kJ/mol]
      Exch-Disp20                   0.00002353 [mEh]       0.00001476 [kcal/mol]       0.00006177 [kJ/mol]
      Disp20 (SS)                  -0.30107011 [mEh]      -0.18892435 [kcal/mol]      -0.79045947 [kJ/mol]
      Disp20 (OS)                  -0.30107011 [mEh]      -0.18892435 [kcal/mol]      -0.79045947 [kJ/mol]
      Exch-Disp20 (SS)              0.00001720 [mEh]       0.00001079 [kcal/mol]       0.00004515 [kJ/mol]
      Exch-Disp20 (OS)              0.00000633 [mEh]       0.00000397 [kcal/mol]       0.00001662 [kJ/mol]

  Total HF                         -7.31521489 [mEh]      -4.59036664 [kcal/mol]     -19.20609404 [kJ/mol]
  Total SAPT0                      -7.91733158 [mEh]      -4.96820057 [kcal/mol]     -20.78695120 [kJ/mol]

  Special recipe for scaled SAPT0 (see Manual):
    Electrostatics sSAPT0          -5.86002151 [mEh]      -3.67721901 [kcal/mol]     -15.38548436 [kJ/mol]
    Exchange sSAPT0                -0.00013632 [mEh]      -0.00008554 [kcal/mol]      -0.00035790 [kJ/mol]
    Induction sSAPT0               -1.45505706 [mEh]      -0.91306209 [kcal/mol]      -3.82025177 [kJ/mol]
    Dispersion sSAPT0              -0.60211669 [mEh]      -0.37783393 [kcal/mol]      -1.58085716 [kJ/mol]
  Total sSAPT0                     -7.91733158 [mEh]      -4.96820057 [kcal/mol]     -20.78695120 [kJ/mol]
  --------------------------------------------------------------------------------------------------------

*** Psi4 exiting successfully. Buy a developer a beer!
