                               Psi4 1.9 release

  ==> Input File <==

--------------------------------------------------------------------------
memory 48 GB # how much memory is available ! Depends on the nodes/cores !

molecule dimer {
# monomer A
-1 1    # Charge and multiplicity
B -1.977592e-04  2.742729e-04 -3.099966
F  1.123153e-16  1.430594e-17 -1.687181
F  1.147860e+00  6.757812e-01 -3.571107
F  1.191806e-02 -1.332011e+00 -3.570905
F -1.159666e+00  6.560735e-01 -3.570826
--
# monomer B
0 1     # Charge and multiplicity
C   1.22531237526482      0.70753866091955      0.00613762728373
C   1.22532433589282     -0.70753852257020     -0.00619318228664
C   -0.00000567409046      1.41496628609039     -0.00672680580738
C   2.45644923379077      1.41832825917820      0.00902448468363
C   0.00001130712078     -1.41497612663474      0.00347275151708
C   -1.22530046906674      0.70754574598412      0.00838914760619
C   2.45643823516184     -1.41832293188077     -0.00843833914343
C   -0.00000085313587      2.83680140328112     -0.00913035594137
C   3.68182717731192      0.70931832800114     -0.00808954934571
C   2.45512052870677      2.83422403348893     -0.00819210630633
C   3.68182158506039     -0.70933346742900      0.00798293467272
C   -1.22531311884624     -0.70752714354401     -0.00512042085974
C   1.22670006104402      3.54346985599427      0.00816696660346
C   0.00000526469929     -2.83678176723568      0.00832091913869
C   -2.45643555300670      1.41831729028492      0.00842454345199
C   2.45512389762097     -2.83422965658853      0.00783102630520
C   -1.22671388474763      3.54346943575023      0.00827029982280
C   4.91451777504333      1.42717324448953     -0.00160886631602
C   3.69315067131765      3.54279566454522     -0.00155906667985
C   -2.45643712022637     -1.41831290883911     -0.00846337726810
C   1.22670532178455     -3.54347386990643     -0.00780316414624
C   -2.45512491866593      2.83421703463423     -0.00818572995999
C   4.91452486062398     -1.42718653794377      0.00136387641845
C   1.22142509354026      4.97013443726031      0.00150231067809
C   4.89300870916237      2.82518837202648     -0.00039219795739
C   -1.22669652864725     -3.54347062507680     -0.00753595973677
C   -3.68181849668397      0.70932533873199     -0.00807686886569
C   3.69314758099218     -3.54280096939050      0.00148176697923
C   -1.22143177215231      4.97012866986289      0.00168580605083
C   6.13477145276790      0.68054831910577     -0.00083909176631
C   3.65678936045204      4.97295361556775     -0.00065042889723
C   -2.45512642789169     -2.83421472106065      0.00758666850712
C   -3.68181869921921     -0.70932533146830      0.00810055625144
C   4.89301309775526     -2.82519973363176      0.00021895393805
C   -0.00000059327114      5.65044773803267      0.00045449734393
C   6.13477559217374     -0.68055448207492      0.00042622874941
C   2.47813196269732      5.65357712333155      0.00063835075260
C   1.22142288457925     -4.97012668293268     -0.00129718634452
C   -3.69316190412301      3.54279732619245     -0.00139355922051
C   -1.22142804110313     -4.97011793159564     -0.00140994817719
C   -4.91452132810043      1.42717581899491     -0.00153192130862
C   3.65678749952045     -4.97295485423912      0.00080007163680
C   -2.47813805026426      5.65357479452875      0.00092287576113
C   -3.69314125872231     -3.54278984697859      0.00136564082345
C   -4.91451200321153     -1.42718062802730      0.00139857359209
C   -0.00000552908399     -5.65043791501335      0.00005899322272
C   -4.89302000425900      2.82518897091939     -0.00040227981744
C   2.47812647313991     -5.65357317188818     -0.00029052915548
C   -3.65679823041642      4.97295655404175     -0.00047374852278
C   -4.89299899901461     -2.82519139505969      0.00006491824035
C   -2.47812801824129     -5.65356579800621     -0.00056571680280
C   -6.13477002348955      0.68054913825639     -0.00086464346868
C   -3.65678835334731     -4.97294365097028      0.00058578382008
C   -6.13476456307132     -0.68055354348201      0.00040575295444
H   5.83528897565761      3.36927626695423      0.00396712770529
H   7.07385965258860      1.22821762089947     -0.00037744837300
H   4.60066374401555      5.51238117445323     -0.00014522814529
H   5.83528386714679     -3.36930568472863     -0.00423551337640
H   -0.00001167146422      6.73853104613662     -0.00389474766392
H   7.07386165167227     -1.22822657074368     -0.00008250934481
H   2.47331421164041      6.74068466339473      0.00017162982210
H   4.60066897122302     -5.51237575717576      0.00039007446835
H   -2.47331820069565      6.74068209160650      0.00047297644710
H   -0.00000978838621     -6.73852780445195      0.00458867820736
H   -5.83530143450167      3.36927132229595      0.00410314985360
H   2.47330840367253     -6.74068500242887      0.00027980126949
H   -4.60067436136587      5.51237839860371      0.00002010017831
H   -5.83527902699321     -3.36928859177951     -0.00451481925734
H   -2.47329986759855     -6.74067870613986     -0.00016951527498
H   -7.07385728692578      1.22822084484047     -0.00046143985387
H   -4.60067330624313     -5.51236229778631      0.00021776644566
H   -7.07385645456741     -1.22822025997701     -0.00017736581114

    units angstrom      # Angstroms are the default
    no_reorient         # Geometry fixed, default
    symmetry c1         # C1 symmetry, default
}

set {
    scf_type DF         # Density fitting, faster than exact integrals
    freeze_core True    # Freeze core electrons
    basis jun-cc-pVDZ   # Jun-cc-pVDZ basis set, recommended for sSAPT0 in https://doi.org/10.1063/1.4867135
}

energy('ssapt0')        # Compute sSAPT0 energy, includes also SAPT0
--------------------------------------------------------------------------

  //              Dimer HF             //
    Molecular point group: c1
  Charge       = -1
  Multiplicity = 1
  Basis Set: JUN-CC-PVDZ
    Blend: JUN-CC-PVDZ
  Basis Set: (JUN-CC-PVDZ AUX)
    Blend: JUN-CC-PVDZ-JKFIT
  @DF-RHF Final Energy: -2478.57131719625704
    Total Energy =                      -2478.5713171962561319
 Dipole X            :         -0.0004280            0.0000481           -0.0003799
 Dipole Y            :          0.0007901           -0.0001453            0.0006448
 Dipole Z            :        -15.4612928           19.0041895            3.5428967
 Magnitude           :                                                    3.5428967
  //            Monomer A HF           //
    Molecular point group: c1
  Multiplicity = 1
  Basis Set: JUN-CC-PVDZ
    Blend: JUN-CC-PVDZ
  Basis Set: (JUN-CC-PVDZ AUX)
    Blend: JUN-CC-PVDZ-JKFIT
  @DF-RHF Final Energy:  -422.77463745718848
    Total Energy =                       -422.7746374571884758
  //            Monomer B HF           //
    Molecular point group: c1

    Geometry (in Angstrom), charge = 0, multiplicity = 1:

       Center              X                  Y                   Z               Mass
    ------------   -----------------  -----------------  -----------------  -----------------
      Gh(B)          -0.000198161052     0.000273808717    -2.741852818387    11.009305360000
      Gh(F)          -0.000000401852    -0.000000464183    -1.329067818387    18.998403162730
      Gh(F)           1.147859598148     0.675780735817    -3.212993818387    18.998403162730
      Gh(F)           0.011917658148    -1.332011464183    -3.212791818387    18.998403162730
      Gh(F)          -1.159666401852     0.656073035817    -3.212712818387    18.998403162730
         C            1.225311973413     0.707538196736     0.364250808897    12.000000000000
         C            1.225323934041    -0.707538986754     0.351919999327    12.000000000000
         C           -0.000006075942     1.414965821907     0.351386375806    12.000000000000
         C            2.456448831939     1.418327794995     0.367137666297    12.000000000000
         C            0.000010905269    -1.414976590818     0.361585933130    12.000000000000
         C           -1.225300870919     0.707545281801     0.366502329219    12.000000000000
         C            2.456437833310    -1.418323396064     0.349674842470    12.000000000000
         C           -0.000001254988     2.836800939098     0.348982825672    12.000000000000
         C            3.681826775460     0.709317863818     0.350023632268    12.000000000000
         C            2.455120126855     2.834223569306     0.349921075307    12.000000000000
         C            3.681821183209    -0.709333931612     0.366096116286    12.000000000000
         C           -1.225313520698    -0.707527607727     0.352992760754    12.000000000000
         C            1.226699659192     3.543469391811     0.366280148217    12.000000000000
         C            0.000004862847    -2.836782231419     0.366434100752    12.000000000000
         C           -2.456435954859     1.418316826102     0.366537725065    12.000000000000
         C            2.455123495769    -2.834230120772     0.365944207918    12.000000000000
         C           -1.226714286599     3.543468971567     0.366383481436    12.000000000000
         C            4.914517373191     1.427172780306     0.356504315297    12.000000000000
         C            3.693150269466     3.542795200362     0.356554114933    12.000000000000
         C           -2.456437522078    -1.418313373022     0.349649804345    12.000000000000
         C            1.226704919933    -3.543474334090     0.350310017467    12.000000000000
         C           -2.455125320518     2.834216570451     0.349927451653    12.000000000000
         C            4.914524458772    -1.427187002127     0.359477058032    12.000000000000
         C            1.221424691688     4.970133973077     0.359615492291    12.000000000000
         C            4.893008307311     2.825187907843     0.357720983656    12.000000000000
         C           -1.226696930499    -3.543471089260     0.350577221877    12.000000000000
         C           -3.681818898536     0.709324874549     0.350036312748    12.000000000000
         C            3.693147179140    -3.542801433574     0.359594948593    12.000000000000
         C           -1.221432174004     4.970128205680     0.359798987664    12.000000000000
         C            6.134771050916     0.680547854922     0.357274089847    12.000000000000
         C            3.656788958600     4.972953151384     0.357462752716    12.000000000000
         C           -2.455126829744    -2.834215185244     0.365699850120    12.000000000000
         C           -3.681819101071    -0.709325795652     0.366213737865    12.000000000000
         C            4.893012695903    -2.825200197815     0.358332135551    12.000000000000
         C           -0.000000995123     5.650447273849     0.358567678957    12.000000000000
         C            6.134775190322    -0.680554946258     0.358539410363    12.000000000000
         C            2.478131560845     5.653576659148     0.358751532366    12.000000000000
         C            1.221422482727    -4.970127147116     0.356815995269    12.000000000000
         C           -3.693162305975     3.542796862009     0.356719622393    12.000000000000
         C           -1.221428442955    -4.970118395779     0.356703233436    12.000000000000
         C           -4.914521729952     1.427175354812     0.356581260305    12.000000000000
         C            3.656787097669    -4.972955318422     0.358913253250    12.000000000000
         C           -2.478138452116     5.653574330345     0.359036057374    12.000000000000
         C           -3.693141660574    -3.542790311162     0.359478822437    12.000000000000
         C           -4.914512405063    -1.427181092211     0.359511755205    12.000000000000
         C           -0.000005930936    -5.650438379197     0.358172174836    12.000000000000
         C           -4.893020406111     2.825188506736     0.357710901796    12.000000000000
         C            2.478126071288    -5.653573636072     0.357822652458    12.000000000000
         C           -3.656798632268     4.972956089858     0.357639433091    12.000000000000
         C           -4.892999400866    -2.825191859243     0.358178099854    12.000000000000
         C           -2.478128420093    -5.653566262190     0.357547464810    12.000000000000
         C           -6.134770425341     0.680548674073     0.357248538145    12.000000000000
         C           -3.656788755199    -4.972944115154     0.358698965433    12.000000000000
         C           -6.134764964923    -0.680554007665     0.358518934568    12.000000000000
         H            5.835288573806     3.369275802771     0.362080309319     1.007825032230
         H            7.073859250737     1.228217156716     0.357735733240     1.007825032230
         H            4.600663342164     5.512380710270     0.357967953468     1.007825032230
         H            5.835283465295    -3.369306148912     0.353877668237     1.007825032230
         H           -0.000012073316     6.738530581953     0.354218433949     1.007825032230
         H            7.073861249820    -1.228227034927     0.358030672268     1.007825032230
         H            2.473313809789     6.740684199211     0.358284811435     1.007825032230
         H            4.600668569371    -5.512376221359     0.358503256082     1.007825032230
         H           -2.473318602548     6.740681627423     0.358586158060     1.007825032230
         H           -0.000010190238    -6.738528268635     0.362701859821     1.007825032230
         H           -5.835301836354     3.369270858113     0.362216331467     1.007825032230
         H            2.473308001821    -6.740685466612     0.358392982883     1.007825032230
         H           -4.600674763218     5.512377934420     0.358133281792     1.007825032230
         H           -5.835279428845    -3.369289055963     0.353598362356     1.007825032230
         H           -2.473300269450    -6.740679170323     0.357943666338     1.007825032230
         H           -7.073857688778     1.228220380657     0.357651741759     1.007825032230
         H           -4.600673708095    -5.512362761970     0.358330948059     1.007825032230
         H           -7.073856856419    -1.228220724160     0.357935815802     1.007825032230

  Charge       = 0
  Multiplicity = 1
  Basis Set: JUN-CC-PVDZ
    Blend: JUN-CC-PVDZ
  Basis Set: (JUN-CC-PVDZ AUX)
    Blend: JUN-CC-PVDZ-JKFIT

    Orbital Energies [Eh]
    ---------------------

    Doubly Occupied:

       1A    -11.260758     2A    -11.260296     3A    -11.260293
       4A    -11.259488     5A    -11.259487     6A    -11.259267
       7A    -11.259001     8A    -11.258935     9A    -11.258933
      10A    -11.258643    11A    -11.258640    12A    -11.258496
      13A    -11.258453    14A    -11.258445    15A    -11.258439
      16A    -11.258403    17A    -11.258397    18A    -11.258379
      19A    -11.258377    20A    -11.258372    21A    -11.258367
      22A    -11.258323    23A    -11.258317    24A    -11.258131
      25A    -11.257275    26A    -11.257215    27A    -11.257214
      28A    -11.257082    29A    -11.257082    30A    -11.256999
      31A    -11.256365    32A    -11.256296    33A    -11.256296
      34A    -11.256189    35A    -11.256189    36A    -11.256142
      37A    -11.252265    38A    -11.252264    39A    -11.252263
      40A    -11.252262    41A    -11.252259    42A    -11.252258
      43A    -11.251365    44A    -11.251364    45A    -11.251363
      46A    -11.251348    47A    -11.251347    48A    -11.251344
      49A    -11.250827    50A    -11.250826    51A    -11.250824
      52A    -11.250822    53A    -11.250820    54A    -11.250819
      55A     -1.243977    56A     -1.219750    57A     -1.219750
      58A     -1.189495    59A     -1.189488    60A     -1.180874
      61A     -1.157527    62A     -1.148937    63A     -1.135417
      64A     -1.135410    65A     -1.113160    66A     -1.113156
      67A     -1.082365    68A     -1.082358    69A     -1.078543
      70A     -1.065953    71A     -1.065950    72A     -1.039351
      73A     -1.024194    74A     -1.021686    75A     -1.021643
      76A     -1.017701    77A     -1.012771    78A     -0.986959
      79A     -0.986913    80A     -0.961843    81A     -0.961794
      82A     -0.894250    83A     -0.894224    84A     -0.887863
      85A     -0.886103    86A     -0.886045    87A     -0.881336
      88A     -0.881289    89A     -0.861855    90A     -0.837394
      91A     -0.818165    92A     -0.816536    93A     -0.812073
      94A     -0.812064    95A     -0.794653    96A     -0.794642
      97A     -0.746563    98A     -0.744792    99A     -0.733341
     100A     -0.733332   101A     -0.732144   102A     -0.732120
     103A     -0.716443   104A     -0.698932   105A     -0.698921
     106A     -0.693532   107A     -0.693517   108A     -0.661191
     109A     -0.653022   110A     -0.651075   111A     -0.650221
     112A     -0.650215   113A     -0.639324   114A     -0.639322
     115A     -0.629662   116A     -0.627460   117A     -0.627444
     118A     -0.606469   119A     -0.605797   120A     -0.601598
     121A     -0.599688   122A     -0.599657   123A     -0.593588
     124A     -0.591130   125A     -0.591119   126A     -0.585260
     127A     -0.576374   128A     -0.576368   129A     -0.567297
     130A     -0.567283   131A     -0.565886   132A     -0.565867
     133A     -0.558647   134A     -0.554803   135A     -0.554796
     136A     -0.538558   137A     -0.538556   138A     -0.538155
     139A     -0.538149   140A     -0.529675   141A     -0.528195
     142A     -0.522827   143A     -0.522820   144A     -0.500468
     145A     -0.495575   146A     -0.493197   147A     -0.487814
     148A     -0.485019   149A     -0.481704   150A     -0.481696
     151A     -0.470376   152A     -0.470357   153A     -0.450937
     154A     -0.450859   155A     -0.439047   156A     -0.439038
     157A     -0.404695   158A     -0.404672   159A     -0.403357
     160A     -0.375414   161A     -0.375411   162A     -0.349091
     163A     -0.337530   164A     -0.336547   165A     -0.336489
     166A     -0.311043   167A     -0.298107   168A     -0.284289
     169A     -0.284235   170A     -0.224867   171A     -0.224801

  @DF-RHF Final Energy: -2055.89428718463296

   => Energetics <=

    Nuclear Repulsion Energy =           6452.5568002797781446
    One-Electron Energy =              -15636.4964284844372742
    Two-Electron Energy =                7128.0453410200252620
    Total Energy =                      -2055.8942871846329581
 Dipole X            :          0.0000191            0.0000419            0.0000610
 Dipole Y            :          0.0000608           -0.0000426            0.0000183
 Dipole Z            :       -231.4427975          231.4422127           -0.0005848
 Magnitude           :                                                    0.0005883

    SAPT Results
  --------------------------------------------------------------------------------------------------------
    Electrostatics                -66.58024470 [mEh]     -41.77973431 [kcal/mol]    -174.80640837 [kJ/mol]
      Elst10,r                    -66.58024470 [mEh]     -41.77973431 [kcal/mol]    -174.80640837 [kJ/mol]

    Exchange                      193.58520828 [mEh]     121.47655218 [kcal/mol]     508.25789432 [kJ/mol]
      Exch10                      193.58520828 [mEh]     121.47655218 [kcal/mol]     508.25789432 [kJ/mol]
      Exch10(S^2)                 189.81353167 [mEh]     119.10978938 [kcal/mol]     498.35535875 [kJ/mol]

    Induction                     -29.39751802 [mEh]     -18.44722106 [kcal/mol]     -77.18317293 [kJ/mol]
      Ind20,r                    -105.27301057 [mEh]     -66.05981147 [kcal/mol]    -276.39425118 [kJ/mol]
      Exch-Ind20,r                 76.20347118 [mEh]      47.81840010 [kcal/mol]     200.07218601 [kJ/mol]
      delta HF,r (2)               -0.32797863 [mEh]      -0.20580970 [kcal/mol]      -0.86110776 [kJ/mol]

    Dispersion                    -31.17673507 [mEh]     -19.56369662 [kcal/mol]     -81.85450665 [kJ/mol]
      Disp20                      -44.98626735 [mEh]     -28.22930895 [kcal/mol]    -118.11142865 [kJ/mol]
      Exch-Disp20                  13.80953228 [mEh]       8.66561233 [kcal/mol]      36.25692201 [kJ/mol]
      Disp20 (SS)                 -22.49313367 [mEh]     -14.11465448 [kcal/mol]     -59.05571433 [kJ/mol]
      Disp20 (OS)                 -22.49313367 [mEh]     -14.11465448 [kcal/mol]     -59.05571433 [kJ/mol]
      Exch-Disp20 (SS)              7.24841098 [mEh]       4.54844656 [kcal/mol]      19.03070042 [kJ/mol]
      Exch-Disp20 (OS)              6.56112130 [mEh]       4.11716577 [kcal/mol]      17.22622159 [kJ/mol]

  Total HF                         97.60744556 [mEh]      61.24959680 [kcal/mol]     256.26831302 [kJ/mol]
  Total SAPT0                      66.43071049 [mEh]      41.68590019 [kcal/mol]     174.41380638 [kJ/mol]

  Special recipe for scaled SAPT0 (see Manual):
    Electrostatics sSAPT0         -66.58024470 [mEh]     -41.77973431 [kcal/mol]    -174.80640837 [kJ/mol]
    Exchange sSAPT0               193.58520828 [mEh]     121.47655218 [kcal/mol]     508.25789432 [kJ/mol]
    Induction sSAPT0              -24.76406964 [mEh]     -15.53968831 [kcal/mol]     -65.01805589 [kJ/mol]
    Dispersion sSAPT0             -30.33706525 [mEh]     -19.03679585 [kcal/mol]     -79.64995384 [kJ/mol]
  Total sSAPT0                     71.90382869 [mEh]      45.12033371 [kcal/mol]     188.78347622 [kJ/mol]
  --------------------------------------------------------------------------------------------------------

*** Psi4 exiting successfully. Buy a developer a beer!
