                               Psi4 1.9 release

  ==> Input File <==

--------------------------------------------------------------------------
memory 48 GB # how much memory is available ! Depends on the nodes/cores !

molecule dimer {
# monomer A
-1 1    # Charge and multiplicity
B -0.000046  0.000337 3.499994
F -1.153597  0.000048 4.315641
F  1.153661 -0.000581 4.315641
F -0.000019 -1.153637 2.684360
F -0.000019  1.153978 2.684360
--
# monomer B
0 1     # Charge and multiplicity
C   1.22531237526482      0.70753866091955      0.00613762728373
C   1.22532433589282     -0.70753852257020     -0.00619318228664
C   -0.00000567409046      1.41496628609039     -0.00672680580738
C   2.45644923379077      1.41832825917820      0.00902448468363
C   0.00001130712078     -1.41497612663474      0.00347275151708
C   -1.22530046906674      0.70754574598412      0.00838914760619
C   2.45643823516184     -1.41832293188077     -0.00843833914343
C   -0.00000085313587      2.83680140328112     -0.00913035594137
C   3.68182717731192      0.70931832800114     -0.00808954934571
C   2.45512052870677      2.83422403348893     -0.00819210630633
C   3.68182158506039     -0.70933346742900      0.00798293467272
C   -1.22531311884624     -0.70752714354401     -0.00512042085974
C   1.22670006104402      3.54346985599427      0.00816696660346
C   0.00000526469929     -2.83678176723568      0.00832091913869
C   -2.45643555300670      1.41831729028492      0.00842454345199
C   2.45512389762097     -2.83422965658853      0.00783102630520
C   -1.22671388474763      3.54346943575023      0.00827029982280
C   4.91451777504333      1.42717324448953     -0.00160886631602
C   3.69315067131765      3.54279566454522     -0.00155906667985
C   -2.45643712022637     -1.41831290883911     -0.00846337726810
C   1.22670532178455     -3.54347386990643     -0.00780316414624
C   -2.45512491866593      2.83421703463423     -0.00818572995999
C   4.91452486062398     -1.42718653794377      0.00136387641845
C   1.22142509354026      4.97013443726031      0.00150231067809
C   4.89300870916237      2.82518837202648     -0.00039219795739
C   -1.22669652864725     -3.54347062507680     -0.00753595973677
C   -3.68181849668397      0.70932533873199     -0.00807686886569
C   3.69314758099218     -3.54280096939050      0.00148176697923
C   -1.22143177215231      4.97012866986289      0.00168580605083
C   6.13477145276790      0.68054831910577     -0.00083909176631
C   3.65678936045204      4.97295361556775     -0.00065042889723
C   -2.45512642789169     -2.83421472106065      0.00758666850712
C   -3.68181869921921     -0.70932533146830      0.00810055625144
C   4.89301309775526     -2.82519973363176      0.00021895393805
C   -0.00000059327114      5.65044773803267      0.00045449734393
C   6.13477559217374     -0.68055448207492      0.00042622874941
C   2.47813196269732      5.65357712333155      0.00063835075260
C   1.22142288457925     -4.97012668293268     -0.00129718634452
C   -3.69316190412301      3.54279732619245     -0.00139355922051
C   -1.22142804110313     -4.97011793159564     -0.00140994817719
C   -4.91452132810043      1.42717581899491     -0.00153192130862
C   3.65678749952045     -4.97295485423912      0.00080007163680
C   -2.47813805026426      5.65357479452875      0.00092287576113
C   -3.69314125872231     -3.54278984697859      0.00136564082345
C   -4.91451200321153     -1.42718062802730      0.00139857359209
C   -0.00000552908399     -5.65043791501335      0.00005899322272
C   -4.89302000425900      2.82518897091939     -0.00040227981744
C   2.47812647313991     -5.65357317188818     -0.00029052915548
C   -3.65679823041642      4.97295655404175     -0.00047374852278
C   -4.89299899901461     -2.82519139505969      0.00006491824035
C   -2.47812801824129     -5.65356579800621     -0.00056571680280
C   -6.13477002348955      0.68054913825639     -0.00086464346868
C   -3.65678835334731     -4.97294365097028      0.00058578382008
C   -6.13476456307132     -0.68055354348201      0.00040575295444
H   5.83528897565761      3.36927626695423      0.00396712770529
H   7.07385965258860      1.22821762089947     -0.00037744837300
H   4.60066374401555      5.51238117445323     -0.00014522814529
H   5.83528386714679     -3.36930568472863     -0.00423551337640
H   -0.00001167146422      6.73853104613662     -0.00389474766392
H   7.07386165167227     -1.22822657074368     -0.00008250934481
H   2.47331421164041      6.74068466339473      0.00017162982210
H   4.60066897122302     -5.51237575717576      0.00039007446835
H   -2.47331820069565      6.74068209160650      0.00047297644710
H   -0.00000978838621     -6.73852780445195      0.00458867820736
H   -5.83530143450167      3.36927132229595      0.00410314985360
H   2.47330840367253     -6.74068500242887      0.00027980126949
H   -4.60067436136587      5.51237839860371      0.00002010017831
H   -5.83527902699321     -3.36928859177951     -0.00451481925734
H   -2.47329986759855     -6.74067870613986     -0.00016951527498
H   -7.07385728692578      1.22822084484047     -0.00046143985387
H   -4.60067330624313     -5.51236229778631      0.00021776644566
H   -7.07385645456741     -1.22822025997701     -0.00017736581114

    units angstrom      # Angstroms are the default
    no_reorient         # Geometry fixed, default
    symmetry c1         # C1 symmetry, default
}

set {
    scf_type DF         # Density fitting, faster than exact integrals
    freeze_core True    # Freeze core electrons
    basis jun-cc-pVDZ   # Jun-cc-pVDZ basis set, recommended for sSAPT0 in https://doi.org/10.1063/1.4867135
}

energy('ssapt0')        # Compute sSAPT0 energy, includes also SAPT0
--------------------------------------------------------------------------

  //              Dimer HF             //
    Molecular point group: c1
  Charge       = -1
  Multiplicity = 1
  Basis Set: JUN-CC-PVDZ
    Blend: JUN-CC-PVDZ
  Basis Set: (JUN-CC-PVDZ AUX)
    Blend: JUN-CC-PVDZ-JKFIT
  @DF-RHF Final Energy: -2478.65722712059733
    Total Energy =                      -2478.6572271205968718
 Dipole X            :         -0.0002085           -0.0000160           -0.0002246
 Dipole Y            :          0.0007558           -0.0001716            0.0005842
 Dipole Z            :         17.0690986          -21.4559928           -4.3868942
 Magnitude           :                                                    4.3868942
  //            Monomer A HF           //
    Molecular point group: c1
  Multiplicity = 1
  Basis Set: JUN-CC-PVDZ
    Blend: JUN-CC-PVDZ
  Basis Set: (JUN-CC-PVDZ AUX)
    Blend: JUN-CC-PVDZ-JKFIT
  @DF-RHF Final Energy:  -422.77370693850452
    Total Energy =                       -422.7737069385045174
  //            Monomer B HF           //
    Molecular point group: c1

    Geometry (in Angstrom), charge = 0, multiplicity = 1:

       Center              X                  Y                   Z               Mass
    ------------   -----------------  -----------------  -----------------  -----------------
      Gh(B)          -0.000046449334     0.000336519434     3.095677428605    11.009305360000
      Gh(F)          -1.153597449334     0.000047519434     3.911324428605    18.998403162730
      Gh(F)           1.153660550666    -0.000581480566     3.911324428605    18.998403162730
      Gh(F)          -0.000019449334    -1.153637480566     2.280043428605    18.998403162730
      Gh(F)          -0.000019449334     1.153977519434     2.280043428605    18.998403162730
         C            1.225311925931     0.707538180353    -0.398178944111    12.000000000000
         C            1.225323886559    -0.707539003137    -0.410509753681    12.000000000000
         C           -0.000006123424     1.414965805524    -0.411043377202    12.000000000000
         C            2.456448784457     1.418327778612    -0.395292086711    12.000000000000
         C            0.000010857787    -1.414976607201    -0.400843819878    12.000000000000
         C           -1.225300918401     0.707545265418    -0.395927423788    12.000000000000
         C            2.456437785828    -1.418323412447    -0.412754910538    12.000000000000
         C           -0.000001302470     2.836800922715    -0.413446927336    12.000000000000
         C            3.681826727978     0.709317847435    -0.412406120740    12.000000000000
         C            2.455120079373     2.834223552923    -0.412508677701    12.000000000000
         C            3.681821135726    -0.709333947995    -0.396333636722    12.000000000000
         C           -1.225313568180    -0.707527624110    -0.409436992254    12.000000000000
         C            1.226699611710     3.543469375428    -0.396149604791    12.000000000000
         C            0.000004815365    -2.836782247802    -0.395995652256    12.000000000000
         C           -2.456436002341     1.418316809719    -0.395892027943    12.000000000000
         C            2.455123448287    -2.834230137155    -0.396485545089    12.000000000000
         C           -1.226714334082     3.543468955184    -0.396046271572    12.000000000000
         C            4.914517325709     1.427172763923    -0.405925437711    12.000000000000
         C            3.693150221984     3.542795183979    -0.405875638074    12.000000000000
         C           -2.456437569560    -1.418313389406    -0.412779948663    12.000000000000
         C            1.226704872451    -3.543474350473    -0.412119735541    12.000000000000
         C           -2.455125368000     2.834216554068    -0.412502301355    12.000000000000
         C            4.914524411290    -1.427187018510    -0.402952694976    12.000000000000
         C            1.221424644206     4.970133956694    -0.402814260717    12.000000000000
         C            4.893008259828     2.825187891460    -0.404708769352    12.000000000000
         C           -1.226696977981    -3.543471105643    -0.411852531131    12.000000000000
         C           -3.681818946018     0.709324858166    -0.412393440260    12.000000000000
         C            3.693147131658    -3.542801449957    -0.402834804415    12.000000000000
         C           -1.221432221486     4.970128189296    -0.402630765344    12.000000000000
         C            6.134771003434     0.680547838539    -0.405155663161    12.000000000000
         C            3.656788911118     4.972953135001    -0.404967000292    12.000000000000
         C           -2.455126877226    -2.834215201627    -0.396729902887    12.000000000000
         C           -3.681819148553    -0.709325812035    -0.396216015143    12.000000000000
         C            4.893012648421    -2.825200214198    -0.404097617457    12.000000000000
         C           -0.000001042605     5.650447257466    -0.403862074051    12.000000000000
         C            6.134775142840    -0.680554962641    -0.403890342645    12.000000000000
         C            2.478131513363     5.653576642765    -0.403678220642    12.000000000000
         C            1.221422435245    -4.970127163499    -0.405613757739    12.000000000000
         C           -3.693162353457     3.542796845626    -0.405710130615    12.000000000000
         C           -1.221428490437    -4.970118412162    -0.405726519572    12.000000000000
         C           -4.914521777434     1.427175338429    -0.405848492703    12.000000000000
         C            3.656787050187    -4.972955334806    -0.403516499758    12.000000000000
         C           -2.478138499598     5.653574313962    -0.403393695633    12.000000000000
         C           -3.693141708056    -3.542790327545    -0.402950930571    12.000000000000
         C           -4.914512452545    -1.427181108594    -0.402917997803    12.000000000000
         C           -0.000005978418    -5.650438395580    -0.404257578172    12.000000000000
         C           -4.893020453593     2.825188490353    -0.404718851212    12.000000000000
         C            2.478126023806    -5.653573652455    -0.404607100550    12.000000000000
         C           -3.656798679750     4.972956073475    -0.404790319917    12.000000000000
         C           -4.892999448349    -2.825191875626    -0.404251653154    12.000000000000
         C           -2.478128467575    -5.653566278573    -0.404882288197    12.000000000000
         C           -6.134770472823     0.680548657690    -0.405181214863    12.000000000000
         C           -3.656788802681    -4.972944131537    -0.403730787575    12.000000000000
         C           -6.134765012405    -0.680554024048    -0.403910818440    12.000000000000
         H            5.835288526324     3.369275786388    -0.400349443689     1.007825032230
         H            7.073859203255     1.228217140333    -0.404694019768     1.007825032230
         H            4.600663294682     5.512380693887    -0.404461799540     1.007825032230
         H            5.835283417813    -3.369306165295    -0.408552084771     1.007825032230
         H           -0.000012120798     6.738530565570    -0.408211319059     1.007825032230
         H            7.073861202338    -1.228227051310    -0.404399080739     1.007825032230
         H            2.473313762307     6.740684182828    -0.404144941573     1.007825032230
         H            4.600668521889    -5.512376237742    -0.403926496926     1.007825032230
         H           -2.473318650030     6.740681611040    -0.403843594948     1.007825032230
         H           -0.000010237720    -6.738528285018    -0.399727893187     1.007825032230
         H           -5.835301883836     3.369270841730    -0.400213421541     1.007825032230
         H            2.473307954339    -6.740685482995    -0.404036770125     1.007825032230
         H           -4.600674810700     5.512377918037    -0.404296471216     1.007825032230
         H           -5.835279476327    -3.369289072346    -0.408831390652     1.007825032230
         H           -2.473300316932    -6.740679186706    -0.404486086670     1.007825032230
         H           -7.073857736260     1.228220364274    -0.404778011248     1.007825032230
         H           -4.600673755577    -5.512362778353    -0.404098804949     1.007825032230
         H           -7.073856903901    -1.228220740543    -0.404493937206     1.007825032230

  Charge       = 0
  Multiplicity = 1
  Basis Set: JUN-CC-PVDZ
    Blend: JUN-CC-PVDZ
  Basis Set: (JUN-CC-PVDZ AUX)
    Blend: JUN-CC-PVDZ-JKFIT

    Orbital Energies [Eh]
    ---------------------

    Doubly Occupied:

       1A    -11.260675     2A    -11.260258     3A    -11.260186
       4A    -11.259500     5A    -11.259438     6A    -11.259281
       7A    -11.259046     8A    -11.258993     9A    -11.258947
      10A    -11.258660    11A    -11.258632    12A    -11.258537
      13A    -11.258481    14A    -11.258478    15A    -11.258474
      16A    -11.258441    17A    -11.258436    18A    -11.258419
      19A    -11.258416    20A    -11.258414    21A    -11.258396
      22A    -11.258352    23A    -11.258320    24A    -11.258091
      25A    -11.257330    26A    -11.257276    27A    -11.257261
      28A    -11.257147    29A    -11.257126    30A    -11.257053
      31A    -11.256424    32A    -11.256361    33A    -11.256348
      34A    -11.256258    35A    -11.256233    36A    -11.256197
      37A    -11.252293    38A    -11.252292    39A    -11.252291
      40A    -11.252289    41A    -11.252288    42A    -11.252286
      43A    -11.251393    44A    -11.251391    45A    -11.251387
      46A    -11.251384    47A    -11.251378    48A    -11.251376
      49A    -11.250855    50A    -11.250854    51A    -11.250852
      52A    -11.250849    53A    -11.250848    54A    -11.250847
      55A     -1.244033    56A     -1.219808    57A     -1.219800
      58A     -1.189538    59A     -1.189535    60A     -1.180914
      61A     -1.157565    62A     -1.148978    63A     -1.135468
      64A     -1.135465    65A     -1.113198    66A     -1.113191
      67A     -1.082420    68A     -1.082414    69A     -1.078582
      70A     -1.065986    71A     -1.065984    72A     -1.039401
      73A     -1.024256    74A     -1.021731    75A     -1.021700
      76A     -1.017736    77A     -1.012804    78A     -0.987011
      79A     -0.986964    80A     -0.961880    81A     -0.961832
      82A     -0.894295    83A     -0.894268    84A     -0.887907
      85A     -0.886159    86A     -0.886097    87A     -0.881382
      88A     -0.881340    89A     -0.861902    90A     -0.837425
      91A     -0.818208    92A     -0.816591    93A     -0.812124
      94A     -0.812114    95A     -0.794692    96A     -0.794683
      97A     -0.746609    98A     -0.744845    99A     -0.733390
     100A     -0.733383   101A     -0.732184   102A     -0.732162
     103A     -0.716482   104A     -0.698974   105A     -0.698966
     106A     -0.693574   107A     -0.693563   108A     -0.661232
     109A     -0.653076   110A     -0.651130   111A     -0.650255
     112A     -0.650253   113A     -0.639364   114A     -0.639361
     115A     -0.629701   116A     -0.627513   117A     -0.627490
     118A     -0.606465   119A     -0.605823   120A     -0.601648
     121A     -0.599729   122A     -0.599706   123A     -0.593633
     124A     -0.591181   125A     -0.591178   126A     -0.585289
     127A     -0.576418   128A     -0.576362   129A     -0.567331
     130A     -0.567318   131A     -0.565935   132A     -0.565916
     133A     -0.558699   134A     -0.554843   135A     -0.554836
     136A     -0.538598   137A     -0.538594   138A     -0.538191
     139A     -0.538191   140A     -0.529717   141A     -0.528185
     142A     -0.522867   143A     -0.522862   144A     -0.500507
     145A     -0.495608   146A     -0.493237   147A     -0.487842
     148A     -0.485065   149A     -0.481749   150A     -0.481741
     151A     -0.470371   152A     -0.470321   153A     -0.450994
     154A     -0.450912   155A     -0.439082   156A     -0.439064
     157A     -0.404746   158A     -0.404711   159A     -0.403378
     160A     -0.375430   161A     -0.375424   162A     -0.349144
     163A     -0.337592   164A     -0.336557   165A     -0.336502
     166A     -0.311075   167A     -0.298124   168A     -0.284334
     169A     -0.284280   170A     -0.224910   171A     -0.224844

  @DF-RHF Final Energy: -2055.89381355322985

   => Energetics <=

    Nuclear Repulsion Energy =           6452.5568002797781446
    One-Electron Energy =              -15636.4832188657055667
    Two-Electron Energy =                7128.0326050326984841
    Total Energy =                      -2055.8938135532298475
 Dipole X            :          0.0000637            0.0000112            0.0000749
 Dipole Y            :          0.0003304           -0.0000531            0.0002773
 Dipole Z            :        261.3055843         -261.3057180           -0.0001337
 Magnitude           :                                                    0.0003168

    SAPT Results
  --------------------------------------------------------------------------------------------------------
    Electrostatics                  2.86326428 [mEh]       1.79672546 [kcal/mol]       7.51749934 [kJ/mol]
      Elst10,r                      2.86326428 [mEh]       1.79672546 [kcal/mol]       7.51749934 [kJ/mol]

    Exchange                       26.14727557 [mEh]      16.40766313 [kcal/mol]      68.64966254 [kJ/mol]
      Exch10                       26.14727557 [mEh]      16.40766313 [kcal/mol]      68.64966254 [kJ/mol]
      Exch10(S^2)                  26.03946825 [mEh]      16.34001302 [kcal/mol]      68.36661447 [kJ/mol]

    Induction                     -18.71716871 [mEh]     -11.74520069 [kcal/mol]     -49.14191968 [kJ/mol]
      Ind20,r                     -26.17187938 [mEh]     -16.42310226 [kcal/mol]     -68.71425985 [kJ/mol]
      Exch-Ind20,r                  9.55165452 [mEh]       5.99375370 [kcal/mol]      25.07786548 [kJ/mol]
      delta HF,r (2)               -2.09694385 [mEh]      -1.31585213 [kcal/mol]      -5.50552531 [kJ/mol]

    Dispersion                    -13.56090553 [mEh]      -8.50959669 [kcal/mol]     -35.60415255 [kJ/mol]
      Disp20                      -16.49323890 [mEh]     -10.34966366 [kcal/mol]     -43.30299276 [kJ/mol]
      Exch-Disp20                   2.93233337 [mEh]       1.84006697 [kcal/mol]       7.69884021 [kJ/mol]
      Disp20 (SS)                  -8.24661945 [mEh]      -5.17483183 [kcal/mol]     -21.65149638 [kJ/mol]
      Disp20 (OS)                  -8.24661945 [mEh]      -5.17483183 [kcal/mol]     -21.65149638 [kJ/mol]
      Exch-Disp20 (SS)              1.64171772 [mEh]       1.03019342 [kcal/mol]       4.31032928 [kJ/mol]
      Exch-Disp20 (OS)              1.29061565 [mEh]       0.80987355 [kcal/mol]       3.38851093 [kJ/mol]

  Total HF                         10.29337114 [mEh]       6.45918791 [kcal/mol]      27.02524220 [kJ/mol]
  Total SAPT0                      -3.26753439 [mEh]      -2.05040878 [kcal/mol]      -8.57891036 [kJ/mol]

  Special recipe for scaled SAPT0 (see Manual):
    Electrostatics sSAPT0           2.86326428 [mEh]       1.79672546 [kcal/mol]       7.51749934 [kJ/mol]
    Exchange sSAPT0                26.14727557 [mEh]      16.40766313 [kcal/mol]      68.64966254 [kJ/mol]
    Induction sSAPT0              -18.59804100 [mEh]     -11.67044692 [kcal/mol]     -48.82914992 [kJ/mol]
    Dispersion sSAPT0             -13.52433363 [mEh]      -8.48664748 [kcal/mol]     -35.50813304 [kJ/mol]
  Total sSAPT0                     -3.11183478 [mEh]      -1.95270580 [kcal/mol]      -8.17012108 [kJ/mol]
  --------------------------------------------------------------------------------------------------------

*** Psi4 exiting successfully. Buy a developer a beer!
