                               Psi4 1.9 release

  ==> Input File <==

--------------------------------------------------------------------------
memory 64 GB # how much memory is available ! Depends on the nodes/cores !

molecule dimer {
# monomer A
-1 1    # Charge and multiplicity
B -1.977592e-04  2.742729e-04 5.600034
F  1.123153e-16  1.430594e-17 7.012819
F  1.147860e+00  6.757812e-01 5.128893
F  1.191806e-02 -1.332011e+00 5.129095
F -1.159666e+00  6.560735e-01 5.129174
--
# monomer B
0 1     # Charge and multiplicity
C   -3.66844126402057      7.80375217008252      0.00190004133558
C   -4.84759871934653      7.13124183134024     -0.00046653359696
C   -4.89495929917518      5.69633040353158     -0.00103944469517
C   -3.65374067877320      4.98073034095895      0.00662099703436
C   -2.40942512149445      7.11398103667468      0.00209438359570
C   -2.42547734410473      5.68112195090346     -0.00491050527438
C   -1.19474401643570      7.78614419430947      0.00356656413763
C   0.03795902893699      7.09942164575698      0.00139585983271
C   0.03033258741920      5.66948955970466     -0.00408752508301
C   -1.20098450790502      4.96927034791531      0.00488220885047
C   1.27795782581485      7.77285944319479      0.00277170839332
C   2.48535808472416      7.08769688523756      0.00049722048857
C   2.48612868491717      5.65477081024076     -0.00644052849921
C   1.25408291964399      4.95607811366431      0.00518741308898
C   3.75171459140595      7.76391215098033      0.00062407186893
C   4.92356605618520      7.07878077698995     -0.00143240883900
C   4.95560727132542      5.64344746336949     -0.00159282164606
C   3.70680153420475      4.94121020833308      0.00349873852374
H   -3.65852113775815      8.89082741913536      0.00358502958574
H   -1.18921332975660      8.87412108735996      0.00753844057883
H   1.28429423888630      8.86083343548850      0.00693053253426
H   3.75354208679975      8.85103527897216      0.00214659618464
H   5.86995870320703      7.61379483465560     -0.00235777588134
H   -5.78823170750226      7.67630221293400     -0.00202638095293
C   -6.09197395869619      4.99326001364347     -0.00291168518608
C   -6.12866148031747      3.58258016879823     -0.00171050815740
C   -3.66457974004527      3.56418217974434     -0.00463560277484
C   -4.89429820469869      2.86108077590057      0.00453338221034
C   -2.43733499489796      2.84761165708481      0.00719617576166
C   -1.20922785759670      3.54788693497833     -0.00648285103018
C   1.24714157216223      3.53468075142962     -0.00729145743546
C   0.01517603956900      2.83311183930540      0.00439272578912
C   2.46764517244071      2.82128997725533      0.00449278391269
C   3.70254947457969      3.52466015442405     -0.00899517692985
C   6.14498038638375      4.92757236613191     -0.00282626685777
C   6.16658835886151      3.51658447594213     -0.00065971342101
C   4.92460995845939      2.80840792535402      0.00587903281610
H   7.08990550964105      5.46688776622306     -0.00658814770723
H   -7.03104175110130      5.54268795285765     -0.00714490013730
C   -7.33969804112295      2.85841153457957     -0.00333767559888
C   -7.36488195805880      1.47032337158330     -0.00157213747140
C   -4.90350460894690      1.44442681216000     -0.00628840166334
C   -6.13225715261081      0.73993935705394      0.00600164231964
C   -3.67687480051673      0.72669714267312      0.00433931473643
C   -2.44565658606518      1.42964113326212     -0.00597039546461
C   -1.22360068130162      0.71532450163492      0.00545886906656
C   0.00763786931376      1.41738314923765      0.00392452278437
C   1.23121980774686      0.70211669058719     -0.01490206287210
C   2.46082110053113      1.40329203612573      0.00460244601878
C   3.68443025419614      0.68719842821222      0.00377365974158
C   4.91870890153864      1.39173456118907     -0.00862816189375
C   7.36980207796101      2.77948220318441     -0.00242013321349
C   7.38016266612146      1.39121750785509     -0.00087345036788
C   6.13979953912259      0.67411862320065      0.00545489144369
H   -8.27919079934664      3.40711804112415     -0.00763522772059
H   8.31511347147953      3.31811809662368     -0.00663070901292
C   -8.59175593758115      0.72483255304480     -0.00123170985383
C   -8.59902460370342     -0.63263980622873      0.00089141472904
C   -6.13981313911873     -0.67413663715361     -0.00609792660607
C   -7.38018411213749     -1.39126618958160      0.00131813493501
C   -4.91868448025621     -1.39175501803000      0.00624257154343
C   -3.68443829568458     -0.68723731573599     -0.00478966852105
C   -2.46081704024768     -1.40334517882457      0.00575341766833
C   -1.23116201232071     -0.70217386488055     -0.00636696112346
C   -0.00756962538737     -1.41741884941102      0.00108956317991
C   1.22364771588843     -0.71527537726392      0.01109518512883
C   2.44567064933149     -1.42964328900682     -0.00065482763106
C   3.67686670284649     -0.72670743155550     -0.00479541202602
C   6.13224884641929     -0.73997883984993     -0.00632338623858
C   4.90351914550401     -1.44445752054090      0.00751768830159
C   8.59901484869081      0.63260386666793     -0.00101133422380
C   8.59174548810050     -0.72485086719319      0.00072504603735
C   7.36486276438985     -1.47033266560598      0.00049486934466
H   -9.52830597181814      1.27684744919284     -0.00270163681798
H   9.54141097460619      1.17457248844457     -0.00206336648518
C   -7.36983790976868     -2.77954514593389      0.00312634335708
C   -4.92459910905015     -2.80843725734101     -0.00460528907921
C   -6.16662249566744     -3.51665219282533      0.00169655107992
C   -3.70251035970491     -3.52468154912026      0.00571878010666
C   -2.46764698511392     -2.82132596280400     -0.00632585824990
C   -0.01513347410770     -2.83314164539971     -0.00604426974092
C   -1.24712184122656     -3.53473217556300      0.00551968366725
C   1.20924506964357     -3.54791467864352      0.00805871345849
C   2.43733602215464     -2.84764173817541     -0.00608104485234
C   4.89430234377080     -2.86112296828604     -0.00526030478103
C   3.66461525504104     -3.56421984553201      0.00761911515957
C   6.12863901474565     -3.58258405771778      0.00096495711699
C   7.33967266469532     -2.85841330737039      0.00248018319869
H   -9.54144911125902     -1.17456346666430      0.00226083090216
H   9.52826186807155     -1.27691907390448      0.00197485379837
H   -8.31516504384864     -3.31814985321231      0.00729857188773
H   8.27915514249207     -3.40714078989363      0.00681973918158
C   -6.14499418870218     -4.92764727278338      0.00302254913999
C   -3.70678334799751     -4.94126171411716     -0.00679841894792
C   -4.95559005800169     -5.64349397349412      0.00116871569699
C   -2.48612132622665     -5.65478557440947      0.00614125209662
C   -1.25405833548005     -4.95612205000132     -0.00503435388927
C   1.20101257386816     -4.96928038819302     -0.00385322963129
C   -0.03033667441341     -5.66952030313900      0.00398997003238
C   3.65375010132847     -4.98074377541453     -0.00309522988330
C   2.42549269587528     -5.68117463552727      0.00628170066869
C   6.09196561781097     -4.99325796338655      0.00325918379042
C   4.89497644461045     -5.69634842095790      0.00202298796027
H   -7.08989238804069     -5.46699984223871      0.00742531082125
H   7.03105520920009     -5.54265853633254      0.00683896355417
C   -4.92354532219813     -7.07882109967734      0.00061394679214
C   -2.48534208823777     -7.08772807792913     -0.00189594564379
C   -3.75168589177895     -7.76394715763627     -0.00170126671874
C   -0.03794895698805     -7.09946487446944     -0.00168022049625
C   -1.27795610040136     -7.77290438466689     -0.00366491325785
C   2.40944432072629     -7.11402201200282     -0.00081701968533
C   1.19474993715296     -7.78618536556242     -0.00296931056689
C   4.84762105249800     -7.13126211057943      0.00168979497423
C   3.66847160587561     -7.80378799294376     -0.00065863938960
H   -5.86994035041618     -7.61383059804164      0.00215798365757
H   5.78824962538815     -7.67633218931421      0.00281691445618
H   -3.75352693944918     -8.85107156923607     -0.00353718114765
H   -1.28430440589466     -8.86087539249706     -0.00809229711623
H   1.18922157469537     -8.87416062058945     -0.00706194725726
H   3.65854661482387     -8.89086063405326     -0.00231318081200

    units angstrom      # Angstroms are the default
    no_reorient         # Geometry fixed, default
    symmetry c1         # C1 symmetry, default
}

set {
    scf_type DF         # Density fitting, faster than exact integrals
    freeze_core True    # Freeze core electrons
    basis jun-cc-pVDZ   # Jun-cc-pVDZ basis set, recommended for sSAPT0 in https://doi.org/10.1063/1.4867135
}

energy('ssapt0')        # Compute sSAPT0 energy, includes also SAPT0
--------------------------------------------------------------------------

  //              Dimer HF             //
    Molecular point group: c1
  Charge       = -1
  Multiplicity = 1
  Basis Set: JUN-CC-PVDZ
    Blend: JUN-CC-PVDZ
  Basis Set: (JUN-CC-PVDZ AUX)
    Blend: JUN-CC-PVDZ-JKFIT
  @DF-RHF Final Energy: -4073.10541830898046
    Total Energy =                      -4073.1054183089800063
 Dipole X            :         -0.0003102           -0.0000548           -0.0003649
 Dipole Y            :          0.0010553           -0.0002464            0.0008089
 Dipole Z            :         24.6346613          -33.3267998           -8.6921385
 Magnitude           :                                                    8.6921385
  //            Monomer A HF           //
    Molecular point group: c1
  Multiplicity = 1
  Basis Set: JUN-CC-PVDZ
    Blend: JUN-CC-PVDZ
  Basis Set: (JUN-CC-PVDZ AUX)
    Blend: JUN-CC-PVDZ-JKFIT
  @DF-RHF Final Energy:  -422.77171813258263
    Total Energy =                       -422.7717181325826346
  //            Monomer B HF           //
    Molecular point group: c1

    Geometry (in Angstrom), charge = 0, multiplicity = 1:

       Center              X                  Y                   Z               Mass
    ------------   -----------------  -----------------  -----------------  -----------------
      Gh(B)          -0.000201921932     0.000288800891     5.214327951834    11.009305360000
      Gh(F)          -0.000004162732     0.000014527991     6.627112951834    18.998403162730
      Gh(F)           1.147855837268     0.675795727991     4.743186951834    18.998403162730
      Gh(F)           0.011913897268    -1.331996472009     4.743388951834    18.998403162730
      Gh(F)          -1.159670162732     0.656088027991     4.743467951834    18.998403162730
         C           -3.668445426752     7.803766698073    -0.383806006830    12.000000000000
         C           -4.847602882078     7.131256359331    -0.386172581763    12.000000000000
         C           -4.894963461907     5.696344931522    -0.386745492861    12.000000000000
         C           -3.653744841505     4.980744868950    -0.379085051131    12.000000000000
         C           -2.409429284226     7.113995564665    -0.383611664570    12.000000000000
         C           -2.425481506836     5.681136478894    -0.390616553440    12.000000000000
         C           -1.194748179167     7.786158722300    -0.382139484028    12.000000000000
         C            0.037954866205     7.099436173748    -0.384310188333    12.000000000000
         C            0.030328424687     5.669504087695    -0.389793573249    12.000000000000
         C           -1.200988670637     4.969284875906    -0.380823839315    12.000000000000
         C            1.277953663083     7.772873971185    -0.382934339772    12.000000000000
         C            2.485353921992     7.087711413228    -0.385208827677    12.000000000000
         C            2.486124522185     5.654785338231    -0.392146576665    12.000000000000
         C            1.254078756912     4.956092641655    -0.380518635077    12.000000000000
         C            3.751710428674     7.763926678971    -0.385081976297    12.000000000000
         C            4.923561893453     7.078795304981    -0.387138457005    12.000000000000
         C            4.955603108594     5.643461991360    -0.387298869812    12.000000000000
         C            3.706797371473     4.941224736324    -0.382207309642    12.000000000000
         H           -3.658525300490     8.890841947126    -0.382121018580     1.007825032230
         H           -1.189217492488     8.874135615351    -0.378167607587     1.007825032230
         H            1.284290076155     8.860847963479    -0.378775515631     1.007825032230
         H            3.753537924068     8.851049806963    -0.383559451981     1.007825032230
         H            5.869954540475     7.613809362646    -0.388063824047     1.007825032230
         H           -5.788235870234     7.676316740925    -0.387732429119     1.007825032230
         C           -6.091978121428     4.993274541634    -0.388617733352    12.000000000000
         C           -6.128665643049     3.582594696789    -0.387416556323    12.000000000000
         C           -3.664583902777     3.564196707735    -0.390341650940    12.000000000000
         C           -4.894302367430     2.861095303891    -0.381172665955    12.000000000000
         C           -2.437339157630     2.847626185075    -0.378509872404    12.000000000000
         C           -1.209232020328     3.547901462969    -0.392188899196    12.000000000000
         C            1.247137409430     3.534695279420    -0.392997505601    12.000000000000
         C            0.015171876837     2.833126367296    -0.381313322376    12.000000000000
         C            2.467641009709     2.821304505246    -0.381213264253    12.000000000000
         C            3.702545311848     3.524674682415    -0.394701225095    12.000000000000
         C            6.144976223652     4.927586894122    -0.388532315023    12.000000000000
         C            6.166584196130     3.516599003933    -0.386365761587    12.000000000000
         C            4.924605795728     2.808422453345    -0.379827015349    12.000000000000
         H            7.089901346909     5.466902294214    -0.392294195873     1.007825032230
         H           -7.031045913833     5.542702480848    -0.392850948303     1.007825032230
         C           -7.339702203855     2.858426062570    -0.389043723764    12.000000000000
         C           -7.364886120791     1.470337899574    -0.387278185637    12.000000000000
         C           -4.903508771679     1.444441340151    -0.391994449829    12.000000000000
         C           -6.132261315343     0.739953885044    -0.379704405846    12.000000000000
         C           -3.676878963248     0.726711670664    -0.381366733429    12.000000000000
         C           -2.445660748797     1.429655661253    -0.391676443630    12.000000000000
         C           -1.223604844033     0.715339029625    -0.380247179099    12.000000000000
         C            0.007633706582     1.417397677228    -0.381781525381    12.000000000000
         C            1.231215645015     0.702131218578    -0.400608111038    12.000000000000
         C            2.460816937799     1.403306564116    -0.381103602147    12.000000000000
         C            3.684426091464     0.687212956203    -0.381932388424    12.000000000000
         C            4.918704738807     1.391749089180    -0.394334210059    12.000000000000
         C            7.369797915229     2.779496731175    -0.388126181379    12.000000000000
         C            7.380158503390     1.391232035846    -0.386579498533    12.000000000000
         C            6.139795376391     0.674133151191    -0.380251156722    12.000000000000
         H           -8.279194962078     3.407132569115    -0.393341275886     1.007825032230
         H            8.315109308748     3.318132624614    -0.392336757178     1.007825032230
         C           -8.591760100313     0.724847081035    -0.386937758019    12.000000000000
         C           -8.599028766435    -0.632625278238    -0.384814633437    12.000000000000
         C           -6.139817301850    -0.674122109163    -0.391803974772    12.000000000000
         C           -7.380188274869    -1.391251661591    -0.384387913231    12.000000000000
         C           -4.918688642988    -1.391740490039    -0.379463476622    12.000000000000
         C           -3.684442458416    -0.687222787745    -0.390495716687    12.000000000000
         C           -2.460821202979    -1.403330650834    -0.379952630497    12.000000000000
         C           -1.231166175052    -0.702159336890    -0.392073009289    12.000000000000
         C           -0.007573788119    -1.417404321420    -0.384616484986    12.000000000000
         C            1.223643553157    -0.715260849273    -0.374610863037    12.000000000000
         C            2.445666486600    -1.429628761016    -0.386360875797    12.000000000000
         C            3.676862540115    -0.726692903565    -0.390501460192    12.000000000000
         C            6.132244683688    -0.739964311859    -0.392029434404    12.000000000000
         C            4.903514982772    -1.444442992550    -0.378188359864    12.000000000000
         C            8.599010685959     0.632618394658    -0.386717382389    12.000000000000
         C            8.591741325369    -0.724836339203    -0.384981002128    12.000000000000
         C            7.364858601658    -1.470318137615    -0.385211178821    12.000000000000
         H           -9.528310134550     1.276861977183    -0.388407684984     1.007825032230
         H            9.541406811874     1.174587016435    -0.387769414651     1.007825032230
         C           -7.369842072500    -2.779530617943    -0.382579704808    12.000000000000
         C           -4.924603271782    -2.808422729350    -0.390311337245    12.000000000000
         C           -6.166626658399    -3.516637664835    -0.384009497086    12.000000000000
         C           -3.702514522437    -3.524667021130    -0.379987268059    12.000000000000
         C           -2.467651147846    -2.821311434813    -0.392031906415    12.000000000000
         C           -0.015137636839    -2.833127117409    -0.391750317906    12.000000000000
         C           -1.247126003958    -3.534717647572    -0.380186364498    12.000000000000
         C            1.209240906912    -3.547900150653    -0.377647334707    12.000000000000
         C            2.437331859423    -2.847627210185    -0.391787093018    12.000000000000
         C            4.894298181039    -2.861108440295    -0.390966352947    12.000000000000
         C            3.664611092309    -3.564205317541    -0.378086933006    12.000000000000
         C            6.128634852014    -3.582569529727    -0.384741091049    12.000000000000
         C            7.339668501964    -2.858398779380    -0.383225864967    12.000000000000
         H           -9.541453273991    -1.174548938674    -0.383445217263     1.007825032230
         H            9.528257705340    -1.276904545914    -0.383731194367     1.007825032230
         H           -8.315169206580    -3.318135325222    -0.378407476278     1.007825032230
         H            8.279150979760    -3.407126261903    -0.378886308984     1.007825032230
         C           -6.144998351434    -4.927632744793    -0.382683499026    12.000000000000
         C           -3.706787510729    -4.941247186127    -0.392504467113    12.000000000000
         C           -4.955594220733    -5.643479445504    -0.384537332469    12.000000000000
         C           -2.486125488958    -5.654771046419    -0.379564796069    12.000000000000
         C           -1.254062498212    -4.956107522011    -0.390740402055    12.000000000000
         C            1.201008411136    -4.969265860202    -0.389559277797    12.000000000000
         C           -0.030340837145    -5.669505775148    -0.381716078133    12.000000000000
         C            3.653745938597    -4.980729247424    -0.388801278049    12.000000000000
         C            2.425488533144    -5.681160107537    -0.379424347497    12.000000000000
         C            6.091961455079    -4.993243435396    -0.382446864375    12.000000000000
         C            4.894972281879    -5.696333892967    -0.383683060205    12.000000000000
         H           -7.089896550772    -5.466985314248    -0.378280737344     1.007825032230
         H            7.031051046468    -5.542644008342    -0.378867084611     1.007825032230
         C           -4.923549484930    -7.078806571687    -0.385092101373    12.000000000000
         C           -2.485346250970    -7.087713549939    -0.387601993809    12.000000000000
         C           -3.751690054511    -7.763932629646    -0.387407314884    12.000000000000
         C           -0.037953119720    -7.099450346479    -0.387386268662    12.000000000000
         C           -1.277960263133    -7.772889856676    -0.389370961423    12.000000000000
         C            2.409440157995    -7.114007484012    -0.386523067851    12.000000000000
         C            1.194745774421    -7.786170837572    -0.388675358732    12.000000000000
         C            4.847616889766    -7.131247582589    -0.384016253191    12.000000000000
         C            3.668467443144    -7.803773464953    -0.386364687555    12.000000000000
         H           -5.869944513148    -7.613816070051    -0.383548064508     1.007825032230
         H            5.788245462656    -7.676317661324    -0.382889133709     1.007825032230
         H           -3.753531102181    -8.851057041246    -0.389243229313     1.007825032230
         H           -1.284308568626    -8.860860864507    -0.393798345282     1.007825032230
         H            1.189217411964    -8.874146092599    -0.392767995423     1.007825032230
         H            3.658542452092    -8.890846106063    -0.388019228978     1.007825032230

  Charge       = 0
  Multiplicity = 1
  Basis Set: JUN-CC-PVDZ
    Blend: JUN-CC-PVDZ
  Basis Set: (JUN-CC-PVDZ AUX)
    Blend: JUN-CC-PVDZ-JKFIT

    Orbital Energies [Eh]
    ---------------------

    Doubly Occupied:

       1A    -11.264026     2A    -11.263711     3A    -11.263710
       4A    -11.263367     5A    -11.263365     6A    -11.263330
       7A    -11.263173     8A    -11.263147     9A    -11.263144
      10A    -11.262985    11A    -11.262826    12A    -11.262822
      13A    -11.262345    14A    -11.262343    15A    -11.262271
      16A    -11.262270    17A    -11.262218    18A    -11.262186
      19A    -11.262141    20A    -11.262103    21A    -11.262101
      22A    -11.261948    23A    -11.261944    24A    -11.261827
      25A    -11.261813    26A    -11.261799    27A    -11.261795
      28A    -11.261747    29A    -11.261740    30A    -11.261666
      31A    -11.261639    32A    -11.261636    33A    -11.261610
      34A    -11.261608    35A    -11.261586    36A    -11.261537
      37A    -11.261405    38A    -11.261394    39A    -11.261388
      40A    -11.261381    41A    -11.261376    42A    -11.261368
      43A    -11.261362    44A    -11.261347    45A    -11.261342
      46A    -11.261320    47A    -11.261316    48A    -11.261312
      49A    -11.261152    50A    -11.261119    51A    -11.261116
      52A    -11.261035    53A    -11.261034    54A    -11.260962
      55A    -11.260003    56A    -11.259990    57A    -11.259988
      58A    -11.259959    59A    -11.259957    60A    -11.259941
      61A    -11.259379    62A    -11.259354    63A    -11.259351
      64A    -11.259299    65A    -11.259297    66A    -11.259268
      67A    -11.259007    68A    -11.258990    69A    -11.258988
      70A    -11.258960    71A    -11.258958    72A    -11.258946
      73A    -11.254583    74A    -11.254581    75A    -11.254580
      76A    -11.254577    77A    -11.254572    78A    -11.254570
      79A    -11.253730    80A    -11.253728    81A    -11.253725
      82A    -11.253724    83A    -11.253721    84A    -11.253716
      85A    -11.253645    86A    -11.253644    87A    -11.253640
      88A    -11.253639    89A    -11.253637    90A    -11.253632
      91A    -11.253110    92A    -11.253109    93A    -11.253108
      94A    -11.253105    95A    -11.253100    96A    -11.253098
      97A     -1.254097    98A     -1.239119    99A     -1.239119
     100A     -1.220568   101A     -1.220564   102A     -1.215575
     103A     -1.201133   104A     -1.195701   105A     -1.188271
     106A     -1.188270   107A     -1.173853   108A     -1.173850
     109A     -1.155751   110A     -1.155747   111A     -1.152847
     112A     -1.144807   113A     -1.144804   114A     -1.128679
     115A     -1.114834   116A     -1.113248   117A     -1.112610
     118A     -1.112596   119A     -1.111699   120A     -1.088539
     121A     -1.088524   122A     -1.077045   123A     -1.077043
     124A     -1.067731   125A     -1.067702   126A     -1.065096
     127A     -1.046902   128A     -1.046895   129A     -1.040588
     130A     -1.038818   131A     -1.038817   132A     -1.025364
     133A     -1.021527   134A     -1.021477   135A     -1.007274
     136A     -1.006918   137A     -1.003892   138A     -1.000608
     139A     -1.000561   140A     -0.991154   141A     -0.971100
     142A     -0.971052   143A     -0.955974   144A     -0.955919
     145A     -0.905731   146A     -0.905689   147A     -0.905626
     148A     -0.905586   149A     -0.904483   150A     -0.892503
     151A     -0.892444   152A     -0.890490   153A     -0.890433
     154A     -0.889571   155A     -0.872305   156A     -0.869124
     157A     -0.851633   158A     -0.847988   159A     -0.847966
     160A     -0.845722   161A     -0.843132   162A     -0.834665
     163A     -0.834653   164A     -0.828198   165A     -0.828194
     166A     -0.784652   167A     -0.784641   168A     -0.783775
     169A     -0.783748   170A     -0.782397   171A     -0.782377
     172A     -0.782156   173A     -0.767092   174A     -0.760926
     175A     -0.750701   176A     -0.733571   177A     -0.727172
     178A     -0.727159   179A     -0.725193   180A     -0.724640
     181A     -0.724622   182A     -0.718625   183A     -0.713894
     184A     -0.713888   185A     -0.699674   186A     -0.699662
     187A     -0.686257   188A     -0.686045   189A     -0.686042
     190A     -0.682266   191A     -0.682256   192A     -0.678888
     193A     -0.653724   194A     -0.650973   195A     -0.650943
     196A     -0.649938   197A     -0.649922   198A     -0.649652
     199A     -0.641056   200A     -0.641029   201A     -0.640177
     202A     -0.639244   203A     -0.636135   204A     -0.636108
     205A     -0.629243   206A     -0.617697   207A     -0.615387
     208A     -0.615367   209A     -0.608896   210A     -0.608889
     211A     -0.599168   212A     -0.599130   213A     -0.598848
     214A     -0.598722   215A     -0.598696   216A     -0.598163
     217A     -0.595153   218A     -0.595141   219A     -0.594820
     220A     -0.594368   221A     -0.592063   222A     -0.592060
     223A     -0.587524   224A     -0.577864   225A     -0.577854
     226A     -0.575718   227A     -0.575715   228A     -0.573472
     229A     -0.569575   230A     -0.568263   231A     -0.568239
     232A     -0.566855   233A     -0.566845   234A     -0.560983
     235A     -0.558829   236A     -0.558811   237A     -0.558499
     238A     -0.554467   239A     -0.550614   240A     -0.547543
     241A     -0.544324   242A     -0.535030   243A     -0.534992
     244A     -0.533630   245A     -0.533608   246A     -0.528162
     247A     -0.528147   248A     -0.527922   249A     -0.517283
     250A     -0.517249   251A     -0.515410   252A     -0.515405
     253A     -0.509726   254A     -0.509709   255A     -0.498118
     256A     -0.496547   257A     -0.496521   258A     -0.493828
     259A     -0.493818   260A     -0.489465   261A     -0.481534
     262A     -0.477474   263A     -0.477471   264A     -0.474084
     265A     -0.469548   266A     -0.466626   267A     -0.466621
     268A     -0.458858   269A     -0.446822   270A     -0.446762
     271A     -0.441083   272A     -0.440811   273A     -0.440787
     274A     -0.434742   275A     -0.433959   276A     -0.407431
     277A     -0.407407   278A     -0.386467   279A     -0.386419
     280A     -0.385783   281A     -0.385782   282A     -0.383811
     283A     -0.354382   284A     -0.354366   285A     -0.350720
     286A     -0.338149   287A     -0.335647   288A     -0.335578
     289A     -0.332766   290A     -0.332760   291A     -0.307143
     292A     -0.302006   293A     -0.301943   294A     -0.300897
     295A     -0.286227   296A     -0.256515   297A     -0.253558
     298A     -0.253506   299A     -0.204319   300A     -0.204230

  @DF-RHF Final Energy: -3650.33803958066756

   => Energetics <=

    Nuclear Repulsion Energy =          15611.4211649754324753
    One-Electron Energy =              -36072.0920143973489758
    Two-Electron Energy =               16810.3328098412494001
    Total Energy =                      -3650.3380395806671004
 Dipole X            :         -0.0008584            0.0002304           -0.0006279
 Dipole Y            :          0.0011142           -0.0013052           -0.0001910
 Dipole Z            :        437.3177519         -437.3238857           -0.0061337
 Magnitude           :                                                    0.0061688

    SAPT Results
  --------------------------------------------------------------------------------------------------------
    Electrostatics                 10.34696348 [mEh]       6.49281761 [kcal/mol]      27.16594886 [kJ/mol]
      Elst10,r                     10.34696348 [mEh]       6.49281761 [kcal/mol]      27.16594886 [kJ/mol]

    Exchange                        0.00393820 [mEh]       0.00247126 [kcal/mol]       0.01033975 [kJ/mol]
      Exch10                        0.00393820 [mEh]       0.00247126 [kcal/mol]       0.01033975 [kJ/mol]
      Exch10(S^2)                   0.00393827 [mEh]       0.00247130 [kcal/mol]       0.01033992 [kJ/mol]

    Induction                      -6.01149741 [mEh]      -3.77227157 [kcal/mol]     -15.78318427 [kJ/mol]
      Ind20,r                      -6.05412202 [mEh]      -3.79901892 [kcal/mol]     -15.89509518 [kJ/mol]
      Exch-Ind20,r                  0.00264333 [mEh]       0.00165871 [kcal/mol]       0.00694005 [kJ/mol]
      delta HF,r (2)                0.03998129 [mEh]       0.02508864 [kcal/mol]       0.10497086 [kJ/mol]

    Dispersion                     -1.29998299 [mEh]      -0.81575164 [kcal/mol]      -3.41310486 [kJ/mol]
      Disp20                       -1.30326791 [mEh]      -0.81781296 [kcal/mol]      -3.42172943 [kJ/mol]
      Exch-Disp20                   0.00328493 [mEh]       0.00206132 [kcal/mol]       0.00862457 [kJ/mol]
      Disp20 (SS)                  -0.65163396 [mEh]      -0.40890648 [kcal/mol]      -1.71086471 [kJ/mol]
      Disp20 (OS)                  -0.65163396 [mEh]      -0.40890648 [kcal/mol]      -1.71086471 [kJ/mol]
      Exch-Disp20 (SS)              0.00249581 [mEh]       0.00156614 [kcal/mol]       0.00655274 [kJ/mol]
      Exch-Disp20 (OS)              0.00078912 [mEh]       0.00049518 [kcal/mol]       0.00207183 [kJ/mol]

  Total HF                          4.33940427 [mEh]       2.72301729 [kcal/mol]      11.39310434 [kJ/mol]
  Total SAPT0                       3.03942128 [mEh]       1.90726565 [kcal/mol]       7.97999948 [kJ/mol]

  Special recipe for scaled SAPT0 (see Manual):
    Electrostatics sSAPT0          10.34696348 [mEh]       6.49281761 [kcal/mol]      27.16594886 [kJ/mol]
    Exchange sSAPT0                 0.00393820 [mEh]       0.00247126 [kcal/mol]       0.01033975 [kJ/mol]
    Induction sSAPT0               -6.01149741 [mEh]      -3.77227157 [kcal/mol]     -15.78318427 [kJ/mol]
    Dispersion sSAPT0              -1.29998299 [mEh]      -0.81575164 [kcal/mol]      -3.41310486 [kJ/mol]
  Total sSAPT0                      3.03942128 [mEh]       1.90726565 [kcal/mol]       7.97999948 [kJ/mol]
  --------------------------------------------------------------------------------------------------------

*** Psi4 exiting successfully. Buy a developer a beer!
