                               Psi4 1.9 release

  ==> Input File <==

--------------------------------------------------------------------------
memory 47 GB # how much memory is available ! Depends on the nodes/cores !

molecule dimer {
# monomer A
-1 1    # Charge and multiplicity
B -1.977592e-04  2.742729e-04 2.000034
F  1.123153e-16  1.430594e-17 3.412819
F  1.147860e+00  6.757812e-01 1.528893
F  1.191806e-02 -1.332011e+00 1.529095
F -1.159666e+00  6.560735e-01 1.529174
--
# monomer B
0 1     # Charge and multiplicity
C   -3.66844126402057      7.80375217008252      0.00190004133558
C   -4.84759871934653      7.13124183134024     -0.00046653359696
C   -4.89495929917518      5.69633040353158     -0.00103944469517
C   -3.65374067877320      4.98073034095895      0.00662099703436
C   -2.40942512149445      7.11398103667468      0.00209438359570
C   -2.42547734410473      5.68112195090346     -0.00491050527438
C   -1.19474401643570      7.78614419430947      0.00356656413763
C   0.03795902893699      7.09942164575698      0.00139585983271
C   0.03033258741920      5.66948955970466     -0.00408752508301
C   -1.20098450790502      4.96927034791531      0.00488220885047
C   1.27795782581485      7.77285944319479      0.00277170839332
C   2.48535808472416      7.08769688523756      0.00049722048857
C   2.48612868491717      5.65477081024076     -0.00644052849921
C   1.25408291964399      4.95607811366431      0.00518741308898
C   3.75171459140595      7.76391215098033      0.00062407186893
C   4.92356605618520      7.07878077698995     -0.00143240883900
C   4.95560727132542      5.64344746336949     -0.00159282164606
C   3.70680153420475      4.94121020833308      0.00349873852374
H   -3.65852113775815      8.89082741913536      0.00358502958574
H   -1.18921332975660      8.87412108735996      0.00753844057883
H   1.28429423888630      8.86083343548850      0.00693053253426
H   3.75354208679975      8.85103527897216      0.00214659618464
H   5.86995870320703      7.61379483465560     -0.00235777588134
H   -5.78823170750226      7.67630221293400     -0.00202638095293
C   -6.09197395869619      4.99326001364347     -0.00291168518608
C   -6.12866148031747      3.58258016879823     -0.00171050815740
C   -3.66457974004527      3.56418217974434     -0.00463560277484
C   -4.89429820469869      2.86108077590057      0.00453338221034
C   -2.43733499489796      2.84761165708481      0.00719617576166
C   -1.20922785759670      3.54788693497833     -0.00648285103018
C   1.24714157216223      3.53468075142962     -0.00729145743546
C   0.01517603956900      2.83311183930540      0.00439272578912
C   2.46764517244071      2.82128997725533      0.00449278391269
C   3.70254947457969      3.52466015442405     -0.00899517692985
C   6.14498038638375      4.92757236613191     -0.00282626685777
C   6.16658835886151      3.51658447594213     -0.00065971342101
C   4.92460995845939      2.80840792535402      0.00587903281610
H   7.08990550964105      5.46688776622306     -0.00658814770723
H   -7.03104175110130      5.54268795285765     -0.00714490013730
C   -7.33969804112295      2.85841153457957     -0.00333767559888
C   -7.36488195805880      1.47032337158330     -0.00157213747140
C   -4.90350460894690      1.44442681216000     -0.00628840166334
C   -6.13225715261081      0.73993935705394      0.00600164231964
C   -3.67687480051673      0.72669714267312      0.00433931473643
C   -2.44565658606518      1.42964113326212     -0.00597039546461
C   -1.22360068130162      0.71532450163492      0.00545886906656
C   0.00763786931376      1.41738314923765      0.00392452278437
C   1.23121980774686      0.70211669058719     -0.01490206287210
C   2.46082110053113      1.40329203612573      0.00460244601878
C   3.68443025419614      0.68719842821222      0.00377365974158
C   4.91870890153864      1.39173456118907     -0.00862816189375
C   7.36980207796101      2.77948220318441     -0.00242013321349
C   7.38016266612146      1.39121750785509     -0.00087345036788
C   6.13979953912259      0.67411862320065      0.00545489144369
H   -8.27919079934664      3.40711804112415     -0.00763522772059
H   8.31511347147953      3.31811809662368     -0.00663070901292
C   -8.59175593758115      0.72483255304480     -0.00123170985383
C   -8.59902460370342     -0.63263980622873      0.00089141472904
C   -6.13981313911873     -0.67413663715361     -0.00609792660607
C   -7.38018411213749     -1.39126618958160      0.00131813493501
C   -4.91868448025621     -1.39175501803000      0.00624257154343
C   -3.68443829568458     -0.68723731573599     -0.00478966852105
C   -2.46081704024768     -1.40334517882457      0.00575341766833
C   -1.23116201232071     -0.70217386488055     -0.00636696112346
C   -0.00756962538737     -1.41741884941102      0.00108956317991
C   1.22364771588843     -0.71527537726392      0.01109518512883
C   2.44567064933149     -1.42964328900682     -0.00065482763106
C   3.67686670284649     -0.72670743155550     -0.00479541202602
C   6.13224884641929     -0.73997883984993     -0.00632338623858
C   4.90351914550401     -1.44445752054090      0.00751768830159
C   8.59901484869081      0.63260386666793     -0.00101133422380
C   8.59174548810050     -0.72485086719319      0.00072504603735
C   7.36486276438985     -1.47033266560598      0.00049486934466
H   -9.52830597181814      1.27684744919284     -0.00270163681798
H   9.54141097460619      1.17457248844457     -0.00206336648518
C   -7.36983790976868     -2.77954514593389      0.00312634335708
C   -4.92459910905015     -2.80843725734101     -0.00460528907921
C   -6.16662249566744     -3.51665219282533      0.00169655107992
C   -3.70251035970491     -3.52468154912026      0.00571878010666
C   -2.46764698511392     -2.82132596280400     -0.00632585824990
C   -0.01513347410770     -2.83314164539971     -0.00604426974092
C   -1.24712184122656     -3.53473217556300      0.00551968366725
C   1.20924506964357     -3.54791467864352      0.00805871345849
C   2.43733602215464     -2.84764173817541     -0.00608104485234
C   4.89430234377080     -2.86112296828604     -0.00526030478103
C   3.66461525504104     -3.56421984553201      0.00761911515957
C   6.12863901474565     -3.58258405771778      0.00096495711699
C   7.33967266469532     -2.85841330737039      0.00248018319869
H   -9.54144911125902     -1.17456346666430      0.00226083090216
H   9.52826186807155     -1.27691907390448      0.00197485379837
H   -8.31516504384864     -3.31814985321231      0.00729857188773
H   8.27915514249207     -3.40714078989363      0.00681973918158
C   -6.14499418870218     -4.92764727278338      0.00302254913999
C   -3.70678334799751     -4.94126171411716     -0.00679841894792
C   -4.95559005800169     -5.64349397349412      0.00116871569699
C   -2.48612132622665     -5.65478557440947      0.00614125209662
C   -1.25405833548005     -4.95612205000132     -0.00503435388927
C   1.20101257386816     -4.96928038819302     -0.00385322963129
C   -0.03033667441341     -5.66952030313900      0.00398997003238
C   3.65375010132847     -4.98074377541453     -0.00309522988330
C   2.42549269587528     -5.68117463552727      0.00628170066869
C   6.09196561781097     -4.99325796338655      0.00325918379042
C   4.89497644461045     -5.69634842095790      0.00202298796027
H   -7.08989238804069     -5.46699984223871      0.00742531082125
H   7.03105520920009     -5.54265853633254      0.00683896355417
C   -4.92354532219813     -7.07882109967734      0.00061394679214
C   -2.48534208823777     -7.08772807792913     -0.00189594564379
C   -3.75168589177895     -7.76394715763627     -0.00170126671874
C   -0.03794895698805     -7.09946487446944     -0.00168022049625
C   -1.27795610040136     -7.77290438466689     -0.00366491325785
C   2.40944432072629     -7.11402201200282     -0.00081701968533
C   1.19474993715296     -7.78618536556242     -0.00296931056689
C   4.84762105249800     -7.13126211057943      0.00168979497423
C   3.66847160587561     -7.80378799294376     -0.00065863938960
H   -5.86994035041618     -7.61383059804164      0.00215798365757
H   5.78824962538815     -7.67633218931421      0.00281691445618
H   -3.75352693944918     -8.85107156923607     -0.00353718114765
H   -1.28430440589466     -8.86087539249706     -0.00809229711623
H   1.18922157469537     -8.87416062058945     -0.00706194725726
H   3.65854661482387     -8.89086063405326     -0.00231318081200

    units angstrom      # Angstroms are the default
    no_reorient         # Geometry fixed, default
    symmetry c1         # C1 symmetry, default
}

set {
    scf_type DF         # Density fitting, faster than exact integrals
    freeze_core True    # Freeze core electrons
    basis jun-cc-pVDZ   # Jun-cc-pVDZ basis set, recommended for sSAPT0 in https://doi.org/10.1063/1.4867135
}

energy('ssapt0')        # Compute sSAPT0 energy, includes also SAPT0
--------------------------------------------------------------------------

  //              Dimer HF             //
    Molecular point group: c1
  Charge       = -1
  Multiplicity = 1
  Basis Set: JUN-CC-PVDZ
    Blend: JUN-CC-PVDZ
  Basis Set: (JUN-CC-PVDZ AUX)
    Blend: JUN-CC-PVDZ-JKFIT
  @DF-RHF Final Energy: -4072.51159103387545
    Total Energy =                      -4072.5115910338754475
 Dipole X            :          0.0221449           -0.0000548            0.0220902
 Dipole Y            :          0.0123694           -0.0002464            0.0121230
 Dipole Z            :         11.4691675          -11.9026900           -0.4335225
 Magnitude           :                                                    0.4342542
  //            Monomer A HF           //
    Molecular point group: c1
  Multiplicity = 1
  Basis Set: JUN-CC-PVDZ
    Blend: JUN-CC-PVDZ
  Basis Set: (JUN-CC-PVDZ AUX)
    Blend: JUN-CC-PVDZ-JKFIT
  @DF-RHF Final Energy:  -422.78039119739924
    Total Energy =                       -422.7803911973992399
  //            Monomer B HF           //
    Molecular point group: c1

    Geometry (in Angstrom), charge = 0, multiplicity = 1:

       Center              X                  Y                   Z               Mass
    ------------   -----------------  -----------------  -----------------  -----------------
      Gh(B)          -0.000201921932     0.000288800891     1.862279824961    11.009305360000
      Gh(F)          -0.000004162732     0.000014527991     3.275064824961    18.998403162730
      Gh(F)           1.147855837268     0.675795727991     1.391138824961    18.998403162730
      Gh(F)           0.011913897268    -1.331996472009     1.391340824961    18.998403162730
      Gh(F)          -1.159670162732     0.656088027991     1.391419824961    18.998403162730
         C           -3.668445426752     7.803766698073    -0.135854133703    12.000000000000
         C           -4.847602882078     7.131256359331    -0.138220708635    12.000000000000
         C           -4.894963461907     5.696344931522    -0.138793619734    12.000000000000
         C           -3.653744841505     4.980744868950    -0.131133178004    12.000000000000
         C           -2.409429284226     7.113995564665    -0.135659791443    12.000000000000
         C           -2.425481506836     5.681136478894    -0.142664680313    12.000000000000
         C           -1.194748179167     7.786158722300    -0.134187610901    12.000000000000
         C            0.037954866205     7.099436173748    -0.136358315206    12.000000000000
         C            0.030328424687     5.669504087695    -0.141841700122    12.000000000000
         C           -1.200988670637     4.969284875906    -0.132871966188    12.000000000000
         C            1.277953663083     7.772873971185    -0.134982466645    12.000000000000
         C            2.485353921992     7.087711413228    -0.137256954550    12.000000000000
         C            2.486124522185     5.654785338231    -0.144194703538    12.000000000000
         C            1.254078756912     4.956092641655    -0.132566761950    12.000000000000
         C            3.751710428674     7.763926678971    -0.137130103170    12.000000000000
         C            4.923561893453     7.078795304981    -0.139186583878    12.000000000000
         C            4.955603108594     5.643461991360    -0.139346996685    12.000000000000
         C            3.706797371473     4.941224736324    -0.134255436515    12.000000000000
         H           -3.658525300490     8.890841947126    -0.134169145453     1.007825032230
         H           -1.189217492488     8.874135615351    -0.130215734460     1.007825032230
         H            1.284290076155     8.860847963479    -0.130823642504     1.007825032230
         H            3.753537924068     8.851049806963    -0.135607578854     1.007825032230
         H            5.869954540475     7.613809362646    -0.140111950920     1.007825032230
         H           -5.788235870234     7.676316740925    -0.139780555991     1.007825032230
         C           -6.091978121428     4.993274541634    -0.140665860225    12.000000000000
         C           -6.128665643049     3.582594696789    -0.139464683196    12.000000000000
         C           -3.664583902777     3.564196707735    -0.142389777813    12.000000000000
         C           -4.894302367430     2.861095303891    -0.133220792828    12.000000000000
         C           -2.437339157630     2.847626185075    -0.130557999277    12.000000000000
         C           -1.209232020328     3.547901462969    -0.144237026069    12.000000000000
         C            1.247137409430     3.534695279420    -0.145045632474    12.000000000000
         C            0.015171876837     2.833126367296    -0.133361449249    12.000000000000
         C            2.467641009709     2.821304505246    -0.133261391126    12.000000000000
         C            3.702545311848     3.524674682415    -0.146749351968    12.000000000000
         C            6.144976223652     4.927586894122    -0.140580441896    12.000000000000
         C            6.166584196130     3.516599003933    -0.138413888460    12.000000000000
         C            4.924605795728     2.808422453345    -0.131875142222    12.000000000000
         H            7.089901346909     5.466902294214    -0.144342322746     1.007825032230
         H           -7.031045913833     5.542702480848    -0.144899075176     1.007825032230
         C           -7.339702203855     2.858426062570    -0.141091850637    12.000000000000
         C           -7.364886120791     1.470337899574    -0.139326312510    12.000000000000
         C           -4.903508771679     1.444441340151    -0.144042576702    12.000000000000
         C           -6.132261315343     0.739953885044    -0.131752532719    12.000000000000
         C           -3.676878963248     0.726711670664    -0.133414860302    12.000000000000
         C           -2.445660748797     1.429655661253    -0.143724570503    12.000000000000
         C           -1.223604844033     0.715339029625    -0.132295305972    12.000000000000
         C            0.007633706582     1.417397677228    -0.133829652254    12.000000000000
         C            1.231215645015     0.702131218578    -0.152656237911    12.000000000000
         C            2.460816937799     1.403306564116    -0.133151729020    12.000000000000
         C            3.684426091464     0.687212956203    -0.133980515297    12.000000000000
         C            4.918704738807     1.391749089180    -0.146382336932    12.000000000000
         C            7.369797915229     2.779496731175    -0.140174308252    12.000000000000
         C            7.380158503390     1.391232035846    -0.138627625406    12.000000000000
         C            6.139795376391     0.674133151191    -0.132299283595    12.000000000000
         H           -8.279194962078     3.407132569115    -0.145389402759     1.007825032230
         H            8.315109308748     3.318132624614    -0.144384884051     1.007825032230
         C           -8.591760100313     0.724847081035    -0.138985884892    12.000000000000
         C           -8.599028766435    -0.632625278238    -0.136862760309    12.000000000000
         C           -6.139817301850    -0.674122109163    -0.143852101645    12.000000000000
         C           -7.380188274869    -1.391251661591    -0.136436040104    12.000000000000
         C           -4.918688642988    -1.391740490039    -0.131511603495    12.000000000000
         C           -3.684442458416    -0.687222787745    -0.142543843560    12.000000000000
         C           -2.460821202979    -1.403330650834    -0.132000757370    12.000000000000
         C           -1.231166175052    -0.702159336890    -0.144121136162    12.000000000000
         C           -0.007573788119    -1.417404321420    -0.136664611859    12.000000000000
         C            1.223643553157    -0.715260849273    -0.126658989910    12.000000000000
         C            2.445666486600    -1.429628761016    -0.138409002670    12.000000000000
         C            3.676862540115    -0.726692903565    -0.142549587065    12.000000000000
         C            6.132244683688    -0.739964311859    -0.144077561277    12.000000000000
         C            4.903514982772    -1.444442992550    -0.130236486737    12.000000000000
         C            8.599010685959     0.632618394658    -0.138765509262    12.000000000000
         C            8.591741325369    -0.724836339203    -0.137029129001    12.000000000000
         C            7.364858601658    -1.470318137615    -0.137259305694    12.000000000000
         H           -9.528310134550     1.276861977183    -0.140455811857     1.007825032230
         H            9.541406811874     1.174587016435    -0.139817541524     1.007825032230
         C           -7.369842072500    -2.779530617943    -0.134627831681    12.000000000000
         C           -4.924603271782    -2.808422729350    -0.142359464118    12.000000000000
         C           -6.166626658399    -3.516637664835    -0.136057623959    12.000000000000
         C           -3.702514522437    -3.524667021130    -0.132035394932    12.000000000000
         C           -2.467651147846    -2.821311434813    -0.144080033288    12.000000000000
         C           -0.015137636839    -2.833127117409    -0.143798444779    12.000000000000
         C           -1.247126003958    -3.534717647572    -0.132234491371    12.000000000000
         C            1.209240906912    -3.547900150653    -0.129695461580    12.000000000000
         C            2.437331859423    -2.847627210185    -0.143835219891    12.000000000000
         C            4.894298181039    -2.861108440295    -0.143014479820    12.000000000000
         C            3.664611092309    -3.564205317541    -0.130135059879    12.000000000000
         C            6.128634852014    -3.582569529727    -0.136789217922    12.000000000000
         C            7.339668501964    -2.858398779380    -0.135273991840    12.000000000000
         H           -9.541453273991    -1.174548938674    -0.135493344136     1.007825032230
         H            9.528257705340    -1.276904545914    -0.135779321240     1.007825032230
         H           -8.315169206580    -3.318135325222    -0.130455603151     1.007825032230
         H            8.279150979760    -3.407126261903    -0.130934435857     1.007825032230
         C           -6.144998351434    -4.927632744793    -0.134731625899    12.000000000000
         C           -3.706787510729    -4.941247186127    -0.144552593986    12.000000000000
         C           -4.955594220733    -5.643479445504    -0.136585459342    12.000000000000
         C           -2.486125488958    -5.654771046419    -0.131612922942    12.000000000000
         C           -1.254062498212    -4.956107522011    -0.142788528928    12.000000000000
         C            1.201008411136    -4.969265860202    -0.141607404670    12.000000000000
         C           -0.030340837145    -5.669505775148    -0.133764205006    12.000000000000
         C            3.653745938597    -4.980729247424    -0.140849404922    12.000000000000
         C            2.425488533144    -5.681160107537    -0.131472474370    12.000000000000
         C            6.091961455079    -4.993243435396    -0.134494991248    12.000000000000
         C            4.894972281879    -5.696333892967    -0.135731187078    12.000000000000
         H           -7.089896550772    -5.466985314248    -0.130328864217     1.007825032230
         H            7.031051046468    -5.542644008342    -0.130915211484     1.007825032230
         C           -4.923549484930    -7.078806571687    -0.137140228246    12.000000000000
         C           -2.485346250970    -7.087713549939    -0.139650120682    12.000000000000
         C           -3.751690054511    -7.763932629646    -0.139455441757    12.000000000000
         C           -0.037953119720    -7.099450346479    -0.139434395535    12.000000000000
         C           -1.277960263133    -7.772889856676    -0.141419088296    12.000000000000
         C            2.409440157995    -7.114007484012    -0.138571194724    12.000000000000
         C            1.194745774421    -7.786170837572    -0.140723485605    12.000000000000
         C            4.847616889766    -7.131247582589    -0.136064380064    12.000000000000
         C            3.668467443144    -7.803773464953    -0.138412814428    12.000000000000
         H           -5.869944513148    -7.613816070051    -0.135596191381     1.007825032230
         H            5.788245462656    -7.676317661324    -0.134937260582     1.007825032230
         H           -3.753531102181    -8.851057041246    -0.141291356186     1.007825032230
         H           -1.284308568626    -8.860860864507    -0.145846472155     1.007825032230
         H            1.189217411964    -8.874146092599    -0.144816122296     1.007825032230
         H            3.658542452092    -8.890846106063    -0.140067355851     1.007825032230

  Charge       = 0
  Multiplicity = 1
  Basis Set: JUN-CC-PVDZ
    Blend: JUN-CC-PVDZ
  Basis Set: (JUN-CC-PVDZ AUX)
    Blend: JUN-CC-PVDZ-JKFIT

    Orbital Energies [Eh]
    ---------------------

    Doubly Occupied:

       1A    -11.264054     2A    -11.263691     3A    -11.263688
       4A    -11.263233     5A    -11.263231     6A    -11.263205
       7A    -11.263055     8A    -11.263051     9A    -11.263043
      10A    -11.262801    11A    -11.262687    12A    -11.262683
      13A    -11.262205    14A    -11.262202    15A    -11.262174
      16A    -11.262170    17A    -11.262069    18A    -11.262055
      19A    -11.262018    20A    -11.261984    21A    -11.261981
      22A    -11.261880    23A    -11.261875    24A    -11.261732
      25A    -11.261721    26A    -11.261700    27A    -11.261692
      28A    -11.261656    29A    -11.261648    30A    -11.261546
      31A    -11.261528    32A    -11.261524    33A    -11.261523
      34A    -11.261485    35A    -11.261482    36A    -11.261457
      37A    -11.261314    38A    -11.261308    39A    -11.261302
      40A    -11.261298    41A    -11.261293    42A    -11.261289
      43A    -11.261258    44A    -11.261242    45A    -11.261238
      46A    -11.261214    47A    -11.261209    48A    -11.261207
      49A    -11.260996    50A    -11.260962    51A    -11.260958
      52A    -11.260874    53A    -11.260870    54A    -11.260815
      55A    -11.259893    56A    -11.259880    57A    -11.259876
      58A    -11.259847    59A    -11.259844    60A    -11.259828
      61A    -11.259263    62A    -11.259239    63A    -11.259236
      64A    -11.259176    65A    -11.259172    66A    -11.259144
      67A    -11.258894    68A    -11.258877    69A    -11.258873
      70A    -11.258845    71A    -11.258842    72A    -11.258831
      73A    -11.254521    74A    -11.254519    75A    -11.254514
      76A    -11.254512    77A    -11.254512    78A    -11.254512
      79A    -11.253641    80A    -11.253640    81A    -11.253639
      82A    -11.253632    83A    -11.253631    84A    -11.253625
      85A    -11.253556    86A    -11.253555    87A    -11.253555
      88A    -11.253547    89A    -11.253546    90A    -11.253540
      91A    -11.253049    92A    -11.253047    93A    -11.253042
      94A    -11.253040    95A    -11.253040    96A    -11.253040
      97A     -1.253832    98A     -1.238935    99A     -1.238934
     100A     -1.220424   101A     -1.220420   102A     -1.215325
     103A     -1.201016   104A     -1.195574   105A     -1.188049
     106A     -1.188047   107A     -1.173740   108A     -1.173738
     109A     -1.155559   110A     -1.155555   111A     -1.152604
     112A     -1.144701   113A     -1.144698   114A     -1.128517
     115A     -1.114648   116A     -1.113137   117A     -1.112388
     118A     -1.112373   119A     -1.111602   120A     -1.088376
     121A     -1.088361   122A     -1.076938   123A     -1.076937
     124A     -1.067554   125A     -1.067524   126A     -1.064880
     127A     -1.046760   128A     -1.046753   129A     -1.040430
     130A     -1.038713   131A     -1.038712   132A     -1.025160
     133A     -1.021270   134A     -1.021219   135A     -1.007143
     136A     -1.006772   137A     -1.003754   138A     -1.000419
     139A     -1.000370   140A     -0.991055   141A     -0.970926
     142A     -0.970878   143A     -0.955849   144A     -0.955794
     145A     -0.905532   146A     -0.905505   147A     -0.905492
     148A     -0.905463   149A     -0.904224   150A     -0.892283
     151A     -0.892224   152A     -0.890288   153A     -0.890231
     154A     -0.889399   155A     -0.872186   156A     -0.869044
     157A     -0.851506   158A     -0.847796   159A     -0.847774
     160A     -0.845524   161A     -0.842964   162A     -0.834524
     163A     -0.834511   164A     -0.828087   165A     -0.828083
     166A     -0.784504   167A     -0.784493   168A     -0.783589
     169A     -0.783563   170A     -0.782231   171A     -0.782211
     172A     -0.781961   173A     -0.766956   174A     -0.760709
     175A     -0.750485   176A     -0.733456   177A     -0.727026
     178A     -0.727013   179A     -0.725028   180A     -0.724504
     181A     -0.724486   182A     -0.718398   183A     -0.713692
     184A     -0.713686   185A     -0.699529   186A     -0.699517
     187A     -0.686024   188A     -0.685929   189A     -0.685925
     190A     -0.682142   191A     -0.682132   192A     -0.678694
     193A     -0.653571   194A     -0.650816   195A     -0.650786
     196A     -0.649729   197A     -0.649713   198A     -0.649536
     199A     -0.640835   200A     -0.640808   201A     -0.640058
     202A     -0.639139   203A     -0.635951   204A     -0.635924
     205A     -0.629097   206A     -0.617737   207A     -0.615276
     208A     -0.615256   209A     -0.608762   210A     -0.608755
     211A     -0.599108   212A     -0.599074   213A     -0.598683
     214A     -0.598550   215A     -0.598528   216A     -0.597938
     217A     -0.595036   218A     -0.595024   219A     -0.594672
     220A     -0.594137   221A     -0.591890   222A     -0.591887
     223A     -0.587305   224A     -0.577778   225A     -0.577768
     226A     -0.575632   227A     -0.575629   228A     -0.573347
     229A     -0.569626   230A     -0.568048   231A     -0.568025
     232A     -0.566696   233A     -0.566685   234A     -0.560892
     235A     -0.558652   236A     -0.558633   237A     -0.558405
     238A     -0.554317   239A     -0.550521   240A     -0.547456
     241A     -0.544233   242A     -0.535013   243A     -0.534975
     244A     -0.533485   245A     -0.533464   246A     -0.528041
     247A     -0.528026   248A     -0.527703   249A     -0.517080
     250A     -0.517046   251A     -0.515325   252A     -0.515320
     253A     -0.509609   254A     -0.509593   255A     -0.497987
     256A     -0.496400   257A     -0.496374   258A     -0.493747
     259A     -0.493737   260A     -0.489441   261A     -0.481417
     262A     -0.477394   263A     -0.477391   264A     -0.473957
     265A     -0.469386   266A     -0.466470   267A     -0.466465
     268A     -0.458740   269A     -0.446596   270A     -0.446536
     271A     -0.440993   272A     -0.440751   273A     -0.440728
     274A     -0.434662   275A     -0.433888   276A     -0.407343
     277A     -0.407319   278A     -0.386346   279A     -0.386297
     280A     -0.385714   281A     -0.385712   282A     -0.383697
     283A     -0.354295   284A     -0.354279   285A     -0.350597
     286A     -0.337996   287A     -0.335498   288A     -0.335427
     289A     -0.332693   290A     -0.332686   291A     -0.306986
     292A     -0.301858   293A     -0.301794   294A     -0.300812
     295A     -0.286122   296A     -0.256468   297A     -0.253403
     298A     -0.253350   299A     -0.204205   300A     -0.204116

  @DF-RHF Final Energy: -3650.34168601619695

   => Energetics <=

    Nuclear Repulsion Energy =          15611.4211649754324753
    One-Electron Energy =              -36072.1776044130310765
    Two-Electron Energy =               16810.4147534214025654
    Total Energy =                      -3650.3416860161960358
 Dipole X            :         -0.0001945            0.0002304            0.0000359
 Dipole Y            :          0.0011250           -0.0013052           -0.0001802
 Dipole Z            :        156.1921264         -156.1872062            0.0049202
 Magnitude           :                                                    0.0049237

    SAPT Results
  --------------------------------------------------------------------------------------------------------
    Electrostatics               -686.31699154 [mEh]    -430.67041421 [kcal/mol]   -1801.92501305 [kJ/mol]
      Elst10,r                   -686.31699154 [mEh]    -430.67041421 [kcal/mol]   -1801.92501305 [kJ/mol]

    Exchange                     1529.10567202 [mEh]     959.52829560 [kcal/mol]    4014.66638879 [kJ/mol]
      Exch10                     1529.10567202 [mEh]     959.52829560 [kcal/mol]    4014.66638879 [kJ/mol]
      Exch10(S^2)                1339.75058273 [mEh]     840.70618316 [kcal/mol]    3517.51467035 [kJ/mol]

    Induction                    -232.30250076 [mEh]    -145.77202001 [kcal/mol]    -609.91013171 [kJ/mol]
      Ind20,r                   -1141.98053134 [mEh]    -716.60360228 [kcal/mol]   -2998.26947196 [kJ/mol]
      Exch-Ind20,r                783.86704139 [mEh]     491.88399465 [kcal/mol]    2058.04263363 [kJ/mol]
      delta HF,r (2)              125.81098919 [mEh]      78.94758762 [kcal/mol]     330.31670661 [kJ/mol]

    Dispersion                   -124.03880943 [mEh]     -77.83552804 [kcal/mol]    -325.66384930 [kJ/mol]
      Disp20                     -207.37190972 [mEh]    -130.12783794 [kcal/mol]    -544.45487395 [kJ/mol]
      Exch-Disp20                  83.33310028 [mEh]      52.29230991 [kcal/mol]     218.79102465 [kJ/mol]
      Disp20 (SS)                -103.68595486 [mEh]     -65.06391897 [kcal/mol]    -272.22743698 [kJ/mol]
      Disp20 (OS)                -103.68595486 [mEh]     -65.06391897 [kcal/mol]    -272.22743698 [kJ/mol]
      Exch-Disp20 (SS)             38.45926127 [mEh]      24.13355080 [kcal/mol]     100.97477655 [kJ/mol]
      Exch-Disp20 (OS)             44.87383902 [mEh]      28.15875911 [kcal/mol]     117.81624811 [kJ/mol]

  Total HF                        610.48617972 [mEh]     383.08586139 [kcal/mol]    1602.83124403 [kJ/mol]
  Total SAPT0                     486.44737029 [mEh]     305.25033335 [kcal/mol]    1277.16739473 [kJ/mol]

  Special recipe for scaled SAPT0 (see Manual):
    Electrostatics sSAPT0        -686.31699154 [mEh]    -430.67041421 [kcal/mol]   -1801.92501305 [kJ/mol]
    Exchange sSAPT0              1529.10567202 [mEh]     959.52829560 [kcal/mol]    4014.66638879 [kJ/mol]
    Induction sSAPT0              149.25199160 [mEh]      93.65703871 [kcal/mol]     391.86104995 [kJ/mol]
    Dispersion sSAPT0             -83.47565638 [mEh]     -52.38176521 [kcal/mol]    -219.16530563 [kJ/mol]
  Total sSAPT0                    908.56501570 [mEh]     570.13315489 [kcal/mol]    2385.43712007 [kJ/mol]
  --------------------------------------------------------------------------------------------------------

*** Psi4 exiting successfully. Buy a developer a beer!
