                               Psi4 1.9 release

  ==> Input File <==

--------------------------------------------------------------------------
memory 32 GB # how much memory is available ! Depends on the nodes/cores !

molecule dimer {
# monomer A
-1 1    # Charge and multiplicity
B -1.977592e-04  2.742729e-04 5.400034
F  1.123153e-16  1.430594e-17 6.812819
F  1.147860e+00  6.757812e-01 4.928893
F  1.191806e-02 -1.332011e+00 4.929095
F -1.159666e+00  6.560735e-01 4.929174
--
# monomer B
0 1     # Charge and multiplicity
C   1.22531237526482      0.70753866091955      0.00613762728373
C   1.22532433589282     -0.70753852257020     -0.00619318228664
C   -0.00000567409046      1.41496628609039     -0.00672680580738
C   2.45644923379077      1.41832825917820      0.00902448468363
C   0.00001130712078     -1.41497612663474      0.00347275151708
C   -1.22530046906674      0.70754574598412      0.00838914760619
C   2.45643823516184     -1.41832293188077     -0.00843833914343
C   -0.00000085313587      2.83680140328112     -0.00913035594137
C   3.68182717731192      0.70931832800114     -0.00808954934571
C   2.45512052870677      2.83422403348893     -0.00819210630633
C   3.68182158506039     -0.70933346742900      0.00798293467272
C   -1.22531311884624     -0.70752714354401     -0.00512042085974
C   1.22670006104402      3.54346985599427      0.00816696660346
C   0.00000526469929     -2.83678176723568      0.00832091913869
C   -2.45643555300670      1.41831729028492      0.00842454345199
C   2.45512389762097     -2.83422965658853      0.00783102630520
C   -1.22671388474763      3.54346943575023      0.00827029982280
C   4.91451777504333      1.42717324448953     -0.00160886631602
C   3.69315067131765      3.54279566454522     -0.00155906667985
C   -2.45643712022637     -1.41831290883911     -0.00846337726810
C   1.22670532178455     -3.54347386990643     -0.00780316414624
C   -2.45512491866593      2.83421703463423     -0.00818572995999
C   4.91452486062398     -1.42718653794377      0.00136387641845
C   1.22142509354026      4.97013443726031      0.00150231067809
C   4.89300870916237      2.82518837202648     -0.00039219795739
C   -1.22669652864725     -3.54347062507680     -0.00753595973677
C   -3.68181849668397      0.70932533873199     -0.00807686886569
C   3.69314758099218     -3.54280096939050      0.00148176697923
C   -1.22143177215231      4.97012866986289      0.00168580605083
C   6.13477145276790      0.68054831910577     -0.00083909176631
C   3.65678936045204      4.97295361556775     -0.00065042889723
C   -2.45512642789169     -2.83421472106065      0.00758666850712
C   -3.68181869921921     -0.70932533146830      0.00810055625144
C   4.89301309775526     -2.82519973363176      0.00021895393805
C   -0.00000059327114      5.65044773803267      0.00045449734393
C   6.13477559217374     -0.68055448207492      0.00042622874941
C   2.47813196269732      5.65357712333155      0.00063835075260
C   1.22142288457925     -4.97012668293268     -0.00129718634452
C   -3.69316190412301      3.54279732619245     -0.00139355922051
C   -1.22142804110313     -4.97011793159564     -0.00140994817719
C   -4.91452132810043      1.42717581899491     -0.00153192130862
C   3.65678749952045     -4.97295485423912      0.00080007163680
C   -2.47813805026426      5.65357479452875      0.00092287576113
C   -3.69314125872231     -3.54278984697859      0.00136564082345
C   -4.91451200321153     -1.42718062802730      0.00139857359209
C   -0.00000552908399     -5.65043791501335      0.00005899322272
C   -4.89302000425900      2.82518897091939     -0.00040227981744
C   2.47812647313991     -5.65357317188818     -0.00029052915548
C   -3.65679823041642      4.97295655404175     -0.00047374852278
C   -4.89299899901461     -2.82519139505969      0.00006491824035
C   -2.47812801824129     -5.65356579800621     -0.00056571680280
C   -6.13477002348955      0.68054913825639     -0.00086464346868
C   -3.65678835334731     -4.97294365097028      0.00058578382008
C   -6.13476456307132     -0.68055354348201      0.00040575295444
H   5.83528897565761      3.36927626695423      0.00396712770529
H   7.07385965258860      1.22821762089947     -0.00037744837300
H   4.60066374401555      5.51238117445323     -0.00014522814529
H   5.83528386714679     -3.36930568472863     -0.00423551337640
H   -0.00001167146422      6.73853104613662     -0.00389474766392
H   7.07386165167227     -1.22822657074368     -0.00008250934481
H   2.47331421164041      6.74068466339473      0.00017162982210
H   4.60066897122302     -5.51237575717576      0.00039007446835
H   -2.47331820069565      6.74068209160650      0.00047297644710
H   -0.00000978838621     -6.73852780445195      0.00458867820736
H   -5.83530143450167      3.36927132229595      0.00410314985360
H   2.47330840367253     -6.74068500242887      0.00027980126949
H   -4.60067436136587      5.51237839860371      0.00002010017831
H   -5.83527902699321     -3.36928859177951     -0.00451481925734
H   -2.47329986759855     -6.74067870613986     -0.00016951527498
H   -7.07385728692578      1.22822084484047     -0.00046143985387
H   -4.60067330624313     -5.51236229778631      0.00021776644566
H   -7.07385645456741     -1.22822025997701     -0.00017736581114

    units angstrom      # Angstroms are the default
    no_reorient         # Geometry fixed, default
    symmetry c1         # C1 symmetry, default
}

set {
    scf_type DF         # Density fitting, faster than exact integrals
    freeze_core True    # Freeze core electrons
    basis jun-cc-pVDZ   # Jun-cc-pVDZ basis set, recommended for sSAPT0 in https://doi.org/10.1063/1.4867135
}

energy('ssapt0')        # Compute sSAPT0 energy, includes also SAPT0
--------------------------------------------------------------------------

  //              Dimer HF             //
    Molecular point group: c1
  Charge       = -1
  Multiplicity = 1
  Basis Set: JUN-CC-PVDZ
    Blend: JUN-CC-PVDZ
  Basis Set: (JUN-CC-PVDZ AUX)
    Blend: JUN-CC-PVDZ-JKFIT
  @DF-RHF Final Energy: -2478.65864567595190
    Total Energy =                      -2478.6586456759523571
 Dipole X            :         -0.0005411            0.0000481           -0.0004930
 Dipole Y            :          0.0010270           -0.0001453            0.0008817
 Dipole Z            :         25.0792717          -33.1036455           -8.0243738
 Magnitude           :                                                    8.0243739
  //            Monomer A HF           //
    Molecular point group: c1
  Multiplicity = 1
  Basis Set: JUN-CC-PVDZ
    Blend: JUN-CC-PVDZ
  Basis Set: (JUN-CC-PVDZ AUX)
    Blend: JUN-CC-PVDZ-JKFIT
  @DF-RHF Final Energy:  -422.77176684213072
    Total Energy =                       -422.7717668421307167
  //            Monomer B HF           //
    Molecular point group: c1

    Geometry (in Angstrom), charge = 0, multiplicity = 1:

       Center              X                  Y                   Z               Mass
    ------------   -----------------  -----------------  -----------------  -----------------
      Gh(B)          -0.000198161052     0.000273808717     4.776230004663    11.009305360000
      Gh(F)          -0.000000401852    -0.000000464183     6.189015004663    18.998403162730
      Gh(F)           1.147859598148     0.675780735817     4.305089004663    18.998403162730
      Gh(F)           0.011917658148    -1.332011464183     4.305291004663    18.998403162730
      Gh(F)          -1.159666401852     0.656073035817     4.305370004663    18.998403162730
         C            1.225311973413     0.707538196736    -0.617666368054    12.000000000000
         C            1.225323934041    -0.707538986754    -0.629997177624    12.000000000000
         C           -0.000006075942     1.414965821907    -0.630530801145    12.000000000000
         C            2.456448831939     1.418327794995    -0.614779510654    12.000000000000
         C            0.000010905269    -1.414976590818    -0.620331243820    12.000000000000
         C           -1.225300870919     0.707545281801    -0.615414847731    12.000000000000
         C            2.456437833310    -1.418323396064    -0.632242334481    12.000000000000
         C           -0.000001254988     2.836800939098    -0.632934351279    12.000000000000
         C            3.681826775460     0.709317863818    -0.631893544683    12.000000000000
         C            2.455120126855     2.834223569306    -0.631996101644    12.000000000000
         C            3.681821183209    -0.709333931612    -0.615821060665    12.000000000000
         C           -1.225313520698    -0.707527607727    -0.628924416197    12.000000000000
         C            1.226699659192     3.543469391811    -0.615637028734    12.000000000000
         C            0.000004862847    -2.836782231419    -0.615483076199    12.000000000000
         C           -2.456435954859     1.418316826102    -0.615379451885    12.000000000000
         C            2.455123495769    -2.834230120772    -0.615972969032    12.000000000000
         C           -1.226714286599     3.543468971567    -0.615533695514    12.000000000000
         C            4.914517373191     1.427172780306    -0.625412861653    12.000000000000
         C            3.693150269466     3.542795200362    -0.625363062017    12.000000000000
         C           -2.456437522078    -1.418313373022    -0.632267372605    12.000000000000
         C            1.226704919933    -3.543474334090    -0.631607159483    12.000000000000
         C           -2.455125320518     2.834216570451    -0.631989725297    12.000000000000
         C            4.914524458772    -1.427187002127    -0.622440118919    12.000000000000
         C            1.221424691688     4.970133973077    -0.622301684659    12.000000000000
         C            4.893008307311     2.825187907843    -0.624196193295    12.000000000000
         C           -1.226696930499    -3.543471089260    -0.631339955074    12.000000000000
         C           -3.681818898536     0.709324874549    -0.631880864203    12.000000000000
         C            3.693147179140    -3.542801433574    -0.622322228358    12.000000000000
         C           -1.221432174004     4.970128205680    -0.622118189286    12.000000000000
         C            6.134771050916     0.680547854922    -0.624643087104    12.000000000000
         C            3.656788958600     4.972953151384    -0.624454424234    12.000000000000
         C           -2.455126829744    -2.834215185244    -0.616217326830    12.000000000000
         C           -3.681819101071    -0.709325795652    -0.615703439086    12.000000000000
         C            4.893012695903    -2.825200197815    -0.623585041399    12.000000000000
         C           -0.000000995123     5.650447273849    -0.623349497993    12.000000000000
         C            6.134775190322    -0.680554946258    -0.623377766588    12.000000000000
         C            2.478131560845     5.653576659148    -0.623165644585    12.000000000000
         C            1.221422482727    -4.970127147116    -0.625101181682    12.000000000000
         C           -3.693162305975     3.542796862009    -0.625197554558    12.000000000000
         C           -1.221428442955    -4.970118395779    -0.625213943514    12.000000000000
         C           -4.914521729952     1.427175354812    -0.625335916646    12.000000000000
         C            3.656787097669    -4.972955318422    -0.623003923700    12.000000000000
         C           -2.478138452116     5.653574330345    -0.622881119576    12.000000000000
         C           -3.693141660574    -3.542790311162    -0.622438354514    12.000000000000
         C           -4.914512405063    -1.427181092211    -0.622405421745    12.000000000000
         C           -0.000005930936    -5.650438379197    -0.623745002115    12.000000000000
         C           -4.893020406111     2.825188506736    -0.624206275155    12.000000000000
         C            2.478126071288    -5.653573636072    -0.624094524493    12.000000000000
         C           -3.656798632268     4.972956089858    -0.624277743860    12.000000000000
         C           -4.892999400866    -2.825191859243    -0.623739077097    12.000000000000
         C           -2.478128420093    -5.653566262190    -0.624369712140    12.000000000000
         C           -6.134770425341     0.680548674073    -0.624668638806    12.000000000000
         C           -3.656788755199    -4.972944115154    -0.623218211517    12.000000000000
         C           -6.134764964923    -0.680554007665    -0.623398242383    12.000000000000
         H            5.835288573806     3.369275802771    -0.619836867632     1.007825032230
         H            7.073859250737     1.228217156716    -0.624181443710     1.007825032230
         H            4.600663342164     5.512380710270    -0.623949223483     1.007825032230
         H            5.835283465295    -3.369306148912    -0.628039508714     1.007825032230
         H           -0.000012073316     6.738530581953    -0.627698743001     1.007825032230
         H            7.073861249820    -1.228227034927    -0.623886504682     1.007825032230
         H            2.473313809789     6.740684199211    -0.623632365515     1.007825032230
         H            4.600668569371    -5.512376221359    -0.623413920869     1.007825032230
         H           -2.473318602548     6.740681627423    -0.623331018890     1.007825032230
         H           -0.000010190238    -6.738528268635    -0.619215317130     1.007825032230
         H           -5.835301836354     3.369270858113    -0.619700845484     1.007825032230
         H            2.473308001821    -6.740685466612    -0.623524194068     1.007825032230
         H           -4.600674763218     5.512377934420    -0.623783895159     1.007825032230
         H           -5.835279428845    -3.369289055963    -0.628318814595     1.007825032230
         H           -2.473300269450    -6.740679170323    -0.623973510612     1.007825032230
         H           -7.073857688778     1.228220380657    -0.624265435191     1.007825032230
         H           -4.600673708095    -5.512362761970    -0.623586228892     1.007825032230
         H           -7.073856856419    -1.228220724160    -0.623981361148     1.007825032230

  Charge       = 0
  Multiplicity = 1
  Basis Set: JUN-CC-PVDZ
    Blend: JUN-CC-PVDZ
  Basis Set: (JUN-CC-PVDZ AUX)
    Blend: JUN-CC-PVDZ-JKFIT

    Orbital Energies [Eh]
    ---------------------

    Doubly Occupied:

       1A    -11.260620     2A    -11.260177     3A    -11.260176
       4A    -11.259467     5A    -11.259466     6A    -11.259297
       7A    -11.259087     8A    -11.259009     9A    -11.259008
      10A    -11.258685    11A    -11.258682    12A    -11.258614
      13A    -11.258552    14A    -11.258547    15A    -11.258545
      16A    -11.258516    17A    -11.258510    18A    -11.258494
      19A    -11.258481    20A    -11.258475    21A    -11.258470
      22A    -11.258369    23A    -11.258366    24A    -11.258066
      25A    -11.257404    26A    -11.257342    27A    -11.257341
      28A    -11.257206    29A    -11.257205    30A    -11.257121
      31A    -11.256497    32A    -11.256427    33A    -11.256426
      34A    -11.256317    35A    -11.256316    36A    -11.256269
      37A    -11.252360    38A    -11.252359    39A    -11.252358
      40A    -11.252357    41A    -11.252354    42A    -11.252353
      43A    -11.251485    44A    -11.251482    45A    -11.251482
      46A    -11.251474    47A    -11.251473    48A    -11.251469
      49A    -11.250922    50A    -11.250921    51A    -11.250919
      52A    -11.250917    53A    -11.250915    54A    -11.250914
      55A     -1.244194    56A     -1.219938    57A     -1.219937
      58A     -1.189658    59A     -1.189651    60A     -1.181073
      61A     -1.157667    62A     -1.149093    63A     -1.135618
      64A     -1.135612    65A     -1.113299    66A     -1.113295
      67A     -1.082553    68A     -1.082546    69A     -1.078726
      70A     -1.066085    71A     -1.066081    72A     -1.039512
      73A     -1.024404    74A     -1.021897    75A     -1.021854
      76A     -1.017834    77A     -1.012897    78A     -0.987143
      79A     -0.987097    80A     -0.961988    81A     -0.961938
      82A     -0.894403    83A     -0.894377    84A     -0.888068
      85A     -0.886318    86A     -0.886259    87A     -0.881521
      88A     -0.881474    89A     -0.862010    90A     -0.837506
      91A     -0.818324    92A     -0.816743    93A     -0.812259
      94A     -0.812250    95A     -0.794795    96A     -0.794784
      97A     -0.746755    98A     -0.744983    99A     -0.733543
     100A     -0.733534   101A     -0.732291   102A     -0.732268
     103A     -0.716618   104A     -0.699085   105A     -0.699075
     106A     -0.693703   107A     -0.693688   108A     -0.661338
     109A     -0.653237   110A     -0.651285   111A     -0.650359
     112A     -0.650353   113A     -0.639469   114A     -0.639467
     115A     -0.629835   116A     -0.627645   117A     -0.627629
     118A     -0.606476   119A     -0.605894   120A     -0.601785
     121A     -0.599851   122A     -0.599820   123A     -0.593754
     124A     -0.591354   125A     -0.591343   126A     -0.585373
     127A     -0.576400   128A     -0.576394   129A     -0.567425
     130A     -0.567411   131A     -0.566079   132A     -0.566060
     133A     -0.558850   134A     -0.554956   135A     -0.554950
     136A     -0.538700   137A     -0.538698   138A     -0.538253
     139A     -0.538247   140A     -0.529830   141A     -0.528197
     142A     -0.522984   143A     -0.522977   144A     -0.500610
     145A     -0.495678   146A     -0.493344   147A     -0.487907
     148A     -0.485192   149A     -0.481874   150A     -0.481866
     151A     -0.470405   152A     -0.470387   153A     -0.451154
     154A     -0.451076   155A     -0.439148   156A     -0.439139
     157A     -0.404826   158A     -0.404803   159A     -0.403449
     160A     -0.375502   161A     -0.375499   162A     -0.349203
     163A     -0.337669   164A     -0.336635   165A     -0.336577
     166A     -0.311177   167A     -0.298174   168A     -0.284430
     169A     -0.284376   170A     -0.225001   171A     -0.224936

  @DF-RHF Final Energy: -2055.89228063669452

   => Energetics <=

    Nuclear Repulsion Energy =           6452.5568002797772351
    One-Electron Energy =              -15636.4481195389580535
    Two-Electron Energy =                7127.9990386224862959
    Total Energy =                      -2055.8922806366945224
 Dipole X            :          0.0000456            0.0000419            0.0000875
 Dipole Y            :          0.0000248           -0.0000426           -0.0000177
 Dipole Z            :        403.1512131         -403.1574408           -0.0062278
 Magnitude           :                                                    0.0062284

    SAPT Results
  --------------------------------------------------------------------------------------------------------
    Electrostatics                 10.41308790 [mEh]       6.53431131 [kcal/mol]      27.33955851 [kJ/mol]
      Elst10,r                     10.41308790 [mEh]       6.53431131 [kcal/mol]      27.33955851 [kJ/mol]

    Exchange                        0.00954685 [mEh]       0.00599074 [kcal/mol]       0.02506525 [kJ/mol]
      Exch10                        0.00954685 [mEh]       0.00599074 [kcal/mol]       0.02506525 [kJ/mol]
      Exch10(S^2)                   0.00954704 [mEh]       0.00599086 [kcal/mol]       0.02506574 [kJ/mol]

    Induction                      -5.02083187 [mEh]      -3.15061957 [kcal/mol]     -13.18219227 [kJ/mol]
      Ind20,r                      -5.07396522 [mEh]      -3.18396124 [kcal/mol]     -13.32169384 [kJ/mol]
      Exch-Ind20,r                  0.00441620 [mEh]       0.00277121 [kcal/mol]       0.01159473 [kJ/mol]
      delta HF,r (2)                0.04871714 [mEh]       0.03057047 [kcal/mol]       0.12790685 [kJ/mol]

    Dispersion                     -1.38637121 [mEh]      -0.86996107 [kcal/mol]      -3.63991711 [kJ/mol]
      Disp20                       -1.39213722 [mEh]      -0.87357930 [kcal/mol]      -3.65505577 [kJ/mol]
      Exch-Disp20                   0.00576601 [mEh]       0.00361823 [kcal/mol]       0.01513866 [kJ/mol]
      Disp20 (SS)                  -0.69606861 [mEh]      -0.43678965 [kcal/mol]      -1.82752789 [kJ/mol]
      Disp20 (OS)                  -0.69606861 [mEh]      -0.43678965 [kcal/mol]      -1.82752789 [kJ/mol]
      Exch-Disp20 (SS)              0.00433530 [mEh]       0.00272044 [kcal/mol]       0.01138232 [kJ/mol]
      Exch-Disp20 (OS)              0.00143072 [mEh]       0.00089779 [kcal/mol]       0.00375635 [kJ/mol]

  Total HF                          5.40180287 [mEh]       3.38968248 [kcal/mol]      14.18243149 [kJ/mol]
  Total SAPT0                       4.01543166 [mEh]       2.51972141 [kcal/mol]      10.54251438 [kJ/mol]

  Special recipe for scaled SAPT0 (see Manual):
    Electrostatics sSAPT0          10.41308790 [mEh]       6.53431131 [kcal/mol]      27.33955851 [kJ/mol]
    Exchange sSAPT0                 0.00954685 [mEh]       0.00599074 [kcal/mol]       0.02506525 [kJ/mol]
    Induction sSAPT0               -5.02083187 [mEh]      -3.15061957 [kcal/mol]     -13.18219227 [kJ/mol]
    Dispersion sSAPT0              -1.38637121 [mEh]      -0.86996107 [kcal/mol]      -3.63991711 [kJ/mol]
  Total sSAPT0                      4.01543166 [mEh]       2.51972141 [kcal/mol]      10.54251438 [kJ/mol]
  --------------------------------------------------------------------------------------------------------

*** Psi4 exiting successfully. Buy a developer a beer!
