                               Psi4 1.9 release

  ==> Input File <==

--------------------------------------------------------------------------
memory 32 GB # how much memory is available ! Depends on the nodes/cores !

molecule dimer {
# monomer A
+1 1    # Charge and multiplicity
C  0.680067 1.417258 -4.815929
C -0.680504 1.419286 -4.815545
N -1.085635 1.420284 -3.497221
C  0.000108 1.423560 -2.715820
C -2.477365 1.469690 -3.029242
N  1.085222 1.420284 -3.497221
H  1.385146 1.409430 -5.633368
H -1.385302 1.419096 -5.633214
H -0.000009 1.425307 -1.634731
C  2.478117 1.403392 -3.032123
H  2.490592 1.430737 -1.941870
H  2.967028 0.489946 -3.379299
H  3.001428 2.278875 -3.423595
H -2.857359 2.491761 -3.109201
H -3.082679 0.799606 -3.642306
H -2.518128 1.142706 -1.989294
--
# monomer B
0 1     # Charge and multiplicity
C   1.22531237526482      0.70753866091955      0.00613762728373
C   1.22532433589282     -0.70753852257020     -0.00619318228664
C   -0.00000567409046      1.41496628609039     -0.00672680580738
C   2.45644923379077      1.41832825917820      0.00902448468363
C   0.00001130712078     -1.41497612663474      0.00347275151708
C   -1.22530046906674      0.70754574598412      0.00838914760619
C   2.45643823516184     -1.41832293188077     -0.00843833914343
C   -0.00000085313587      2.83680140328112     -0.00913035594137
C   3.68182717731192      0.70931832800114     -0.00808954934571
C   2.45512052870677      2.83422403348893     -0.00819210630633
C   3.68182158506039     -0.70933346742900      0.00798293467272
C   -1.22531311884624     -0.70752714354401     -0.00512042085974
C   1.22670006104402      3.54346985599427      0.00816696660346
C   0.00000526469929     -2.83678176723568      0.00832091913869
C   -2.45643555300670      1.41831729028492      0.00842454345199
C   2.45512389762097     -2.83422965658853      0.00783102630520
C   -1.22671388474763      3.54346943575023      0.00827029982280
C   4.91451777504333      1.42717324448953     -0.00160886631602
C   3.69315067131765      3.54279566454522     -0.00155906667985
C   -2.45643712022637     -1.41831290883911     -0.00846337726810
C   1.22670532178455     -3.54347386990643     -0.00780316414624
C   -2.45512491866593      2.83421703463423     -0.00818572995999
C   4.91452486062398     -1.42718653794377      0.00136387641845
C   1.22142509354026      4.97013443726031      0.00150231067809
C   4.89300870916237      2.82518837202648     -0.00039219795739
C   -1.22669652864725     -3.54347062507680     -0.00753595973677
C   -3.68181849668397      0.70932533873199     -0.00807686886569
C   3.69314758099218     -3.54280096939050      0.00148176697923
C   -1.22143177215231      4.97012866986289      0.00168580605083
C   6.13477145276790      0.68054831910577     -0.00083909176631
C   3.65678936045204      4.97295361556775     -0.00065042889723
C   -2.45512642789169     -2.83421472106065      0.00758666850712
C   -3.68181869921921     -0.70932533146830      0.00810055625144
C   4.89301309775526     -2.82519973363176      0.00021895393805
C   -0.00000059327114      5.65044773803267      0.00045449734393
C   6.13477559217374     -0.68055448207492      0.00042622874941
C   2.47813196269732      5.65357712333155      0.00063835075260
C   1.22142288457925     -4.97012668293268     -0.00129718634452
C   -3.69316190412301      3.54279732619245     -0.00139355922051
C   -1.22142804110313     -4.97011793159564     -0.00140994817719
C   -4.91452132810043      1.42717581899491     -0.00153192130862
C   3.65678749952045     -4.97295485423912      0.00080007163680
C   -2.47813805026426      5.65357479452875      0.00092287576113
C   -3.69314125872231     -3.54278984697859      0.00136564082345
C   -4.91451200321153     -1.42718062802730      0.00139857359209
C   -0.00000552908399     -5.65043791501335      0.00005899322272
C   -4.89302000425900      2.82518897091939     -0.00040227981744
C   2.47812647313991     -5.65357317188818     -0.00029052915548
C   -3.65679823041642      4.97295655404175     -0.00047374852278
C   -4.89299899901461     -2.82519139505969      0.00006491824035
C   -2.47812801824129     -5.65356579800621     -0.00056571680280
C   -6.13477002348955      0.68054913825639     -0.00086464346868
C   -3.65678835334731     -4.97294365097028      0.00058578382008
C   -6.13476456307132     -0.68055354348201      0.00040575295444
H   5.83528897565761      3.36927626695423      0.00396712770529
H   7.07385965258860      1.22821762089947     -0.00037744837300
H   4.60066374401555      5.51238117445323     -0.00014522814529
H   5.83528386714679     -3.36930568472863     -0.00423551337640
H   -0.00001167146422      6.73853104613662     -0.00389474766392
H   7.07386165167227     -1.22822657074368     -0.00008250934481
H   2.47331421164041      6.74068466339473      0.00017162982210
H   4.60066897122302     -5.51237575717576      0.00039007446835
H   -2.47331820069565      6.74068209160650      0.00047297644710
H   -0.00000978838621     -6.73852780445195      0.00458867820736
H   -5.83530143450167      3.36927132229595      0.00410314985360
H   2.47330840367253     -6.74068500242887      0.00027980126949
H   -4.60067436136587      5.51237839860371      0.00002010017831
H   -5.83527902699321     -3.36928859177951     -0.00451481925734
H   -2.47329986759855     -6.74067870613986     -0.00016951527498
H   -7.07385728692578      1.22822084484047     -0.00046143985387
H   -4.60067330624313     -5.51236229778631      0.00021776644566
H   -7.07385645456741     -1.22822025997701     -0.00017736581114

    units angstrom      # Angstroms are the default
    no_reorient         # Geometry fixed, default
    symmetry c1         # C1 symmetry, default
}

set {
    scf_type DF         # Density fitting, faster than exact integrals
    freeze_core True    # Freeze core electrons
    basis jun-cc-pVDZ   # Jun-cc-pVDZ basis set, recommended for sSAPT0 in https://doi.org/10.1063/1.4867135
}

energy('ssapt0')        # Compute sSAPT0 energy, includes also SAPT0
--------------------------------------------------------------------------

  //              Dimer HF             //
    Molecular point group: c1
  Charge       = 1
  Multiplicity = 1
  Basis Set: JUN-CC-PVDZ
    Blend: JUN-CC-PVDZ
  Basis Set: (JUN-CC-PVDZ AUX)
    Blend: JUN-CC-PVDZ-JKFIT
  @DF-RHF Final Energy: -2359.14769818657442
    Total Energy =                      -2359.1476981865744165
 Dipole X            :          0.0011790            0.0006313            0.0018103
 Dipole Y            :         -6.3427148            7.4856329            1.1429181
 Dipole Z            :         13.4821831          -16.8788659           -3.3966828
 Magnitude           :                                                    3.5838134
  //            Monomer A HF           //
    Molecular point group: c1
  Multiplicity = 1
  Basis Set: JUN-CC-PVDZ
    Blend: JUN-CC-PVDZ
  Basis Set: (JUN-CC-PVDZ AUX)
    Blend: JUN-CC-PVDZ-JKFIT
  @DF-RHF Final Energy:  -303.29890113446868
    Total Energy =                       -303.2989011344686787
  //            Monomer B HF           //
    Molecular point group: c1

    Geometry (in Angstrom), charge = 0, multiplicity = 1:

       Center              X                  Y                   Z               Mass
    ------------   -----------------  -----------------  -----------------  -----------------
      Gh(C)           0.680066520158     1.235968212970    -4.358033358461    12.000000000000
      Gh(C)          -0.680504479842     1.237996212970    -4.357649358461    12.000000000000
      Gh(N)          -1.085635479842     1.238994212970    -3.039325358461    14.003074004430
      Gh(C)           0.000107520158     1.242270212970    -2.257924358461    12.000000000000
      Gh(C)          -2.477365479842     1.288400212970    -2.571346358461    12.000000000000
      Gh(N)           1.085221520158     1.238994212970    -3.039325358461    14.003074004430
      Gh(H)           1.385145520158     1.228140212970    -5.175472358461     1.007825032230
      Gh(H)          -1.385302479842     1.237806212970    -5.175318358461     1.007825032230
      Gh(H)          -0.000009479842     1.244017212970    -1.176835358461     1.007825032230
      Gh(C)           2.478116520158     1.222102212970    -2.574227358461    12.000000000000
      Gh(H)           2.490591520158     1.249447212970    -1.483974358461     1.007825032230
      Gh(H)           2.967027520158     0.308656212970    -2.921403358461     1.007825032230
      Gh(H)           3.001427520158     2.097585212970    -2.965699358461     1.007825032230
      Gh(H)          -2.857359479842     2.310471212970    -2.651305358461     1.007825032230
      Gh(H)          -3.082679479842     0.618316212970    -3.184410358461     1.007825032230
      Gh(H)          -2.518128479842     0.961416212970    -1.531398358461     1.007825032230
         C            1.225311895423     0.526248873889     0.464033268822    12.000000000000
         C            1.225323856051    -0.888828309601     0.451702459252    12.000000000000
         C           -0.000006153932     1.233676499060     0.451168835731    12.000000000000
         C            2.456448753949     1.237038472148     0.466920126222    12.000000000000
         C            0.000010827279    -1.596265913665     0.461368393056    12.000000000000
         C           -1.225300948908     0.526255958954     0.466284789145    12.000000000000
         C            2.456437755320    -1.599612718911     0.449457302395    12.000000000000
         C           -0.000001332978     2.655511616251     0.448765285597    12.000000000000
         C            3.681826697470     0.528028540971     0.449806092193    12.000000000000
         C            2.455120048865     2.652934246459     0.449703535232    12.000000000000
         C            3.681821105219    -0.890623254459     0.465878576211    12.000000000000
         C           -1.225313598688    -0.888816930574     0.452775220679    12.000000000000
         C            1.226699581202     3.362180068964     0.466062608142    12.000000000000
         C            0.000004784858    -3.018071554266     0.466216560677    12.000000000000
         C           -2.456436032848     1.237027503255     0.466320184991    12.000000000000
         C            2.455123417779    -3.015519443619     0.465726667844    12.000000000000
         C           -1.226714364589     3.362179648720     0.466165941362    12.000000000000
         C            4.914517295202     1.245883457459     0.456286775223    12.000000000000
         C            3.693150191476     3.361505877515     0.456336574859    12.000000000000
         C           -2.456437600068    -1.599602695869     0.449432264271    12.000000000000
         C            1.226704841943    -3.724763656937     0.450092477393    12.000000000000
         C           -2.455125398508     2.652927247604     0.449709911579    12.000000000000
         C            4.914524380782    -1.608476324974     0.459259517957    12.000000000000
         C            1.221424613699     4.788844650230     0.459397952217    12.000000000000
         C            4.893008229321     2.643898584996     0.457503443581    12.000000000000
         C           -1.226697008489    -3.724760412107     0.450359681802    12.000000000000
         C           -3.681818976526     0.528035551702     0.449818772673    12.000000000000
         C            3.693147101150    -3.724090756421     0.459377408518    12.000000000000
         C           -1.221432251994     4.788838882833     0.459581447590    12.000000000000
         C            6.134770972926     0.499258532075     0.457056549772    12.000000000000
         C            3.656788880610     4.791663828537     0.457245212642    12.000000000000
         C           -2.455126907733    -3.015504508091     0.465482310046    12.000000000000
         C           -3.681819179061    -0.890615118499     0.465996197790    12.000000000000
         C            4.893012617914    -3.006489520662     0.458114595477    12.000000000000
         C           -0.000001073113     5.469157951002     0.458350138883    12.000000000000
         C            6.134775112332    -0.861844269105     0.458321870288    12.000000000000
         C            2.478131482856     5.472287336301     0.458533992291    12.000000000000
         C            1.221422404738    -5.151416469963     0.456598455194    12.000000000000
         C           -3.693162383965     3.361507539162     0.456502082318    12.000000000000
         C           -1.221428520945    -5.151407718626     0.456485693362    12.000000000000
         C           -4.914521807942     1.245886031965     0.456363720230    12.000000000000
         C            3.656787019679    -5.154244641269     0.458695713176    12.000000000000
         C           -2.478138530106     5.472285007498     0.458818517300    12.000000000000
         C           -3.693141738564    -3.724079634009     0.459261282362    12.000000000000
         C           -4.914512483053    -1.608470415058     0.459294215131    12.000000000000
         C           -0.000006008926    -5.831727702044     0.457954634761    12.000000000000
         C           -4.893020484101     2.643899183889     0.457493361721    12.000000000000
         C            2.478125993298    -5.834862958919     0.457605112383    12.000000000000
         C           -3.656798710258     4.791666767011     0.457421893016    12.000000000000
         C           -4.892999478856    -3.006481182090     0.457960559779    12.000000000000
         C           -2.478128498083    -5.834855585037     0.457329924736    12.000000000000
         C           -6.134770503331     0.499259351226     0.457030998070    12.000000000000
         C           -3.656788833189    -5.154233438001     0.458481425359    12.000000000000
         C           -6.134765042913    -0.861843330512     0.458301394493    12.000000000000
         H            5.835288495816     3.187986479924     0.461862769244     1.007825032230
         H            7.073859172747     1.046927833869     0.457518193166     1.007825032230
         H            4.600663264174     5.331091387423     0.457750413393     1.007825032230
         H            5.835283387305    -3.550595471759     0.453660128162     1.007825032230
         H           -0.000012151306     6.557241259106     0.454000893875     1.007825032230
         H            7.073861171831    -1.409516357774     0.457813132194     1.007825032230
         H            2.473313731799     6.559394876364     0.458067271361     1.007825032230
         H            4.600668491381    -5.693665544206     0.458285716007     1.007825032230
         H           -2.473318680537     6.559392304576     0.458368617986     1.007825032230
         H           -0.000010268228    -6.919817591482     0.462484319746     1.007825032230
         H           -5.835301914343     3.187981535266     0.461998791392     1.007825032230
         H            2.473307923831    -6.921974789459     0.458175442808     1.007825032230
         H           -4.600674841208     5.331088611573     0.457915741717     1.007825032230
         H           -5.835279506835    -3.550578378810     0.453380822281     1.007825032230
         H           -2.473300347440    -6.921968493170     0.457726126264     1.007825032230
         H           -7.073857766768     1.046931057810     0.457434201685     1.007825032230
         H           -4.600673786085    -5.693652084817     0.458113407984     1.007825032230
         H           -7.073856934409    -1.409510047007     0.457718275728     1.007825032230

  Charge       = 0
  Multiplicity = 1
  Basis Set: JUN-CC-PVDZ
    Blend: JUN-CC-PVDZ
  Basis Set: (JUN-CC-PVDZ AUX)
    Blend: JUN-CC-PVDZ-JKFIT

    Orbital Energies [Eh]
    ---------------------

    Doubly Occupied:

       1A    -11.260587     2A    -11.260077     3A    -11.260067
       4A    -11.259474     5A    -11.259387     6A    -11.259167
       7A    -11.258988     8A    -11.258935     9A    -11.258825
      10A    -11.258551    11A    -11.258509    12A    -11.258432
      13A    -11.258380    14A    -11.258365    15A    -11.258360
      16A    -11.258345    17A    -11.258329    18A    -11.258315
      19A    -11.258305    20A    -11.258282    21A    -11.258275
      22A    -11.258225    23A    -11.258208    24A    -11.257920
      25A    -11.257256    26A    -11.257215    27A    -11.257162
      28A    -11.257072    29A    -11.257052    30A    -11.256957
      31A    -11.256346    32A    -11.256290    33A    -11.256270
      34A    -11.256168    35A    -11.256159    36A    -11.256082
      37A    -11.252198    38A    -11.252195    39A    -11.252167
      40A    -11.252146    41A    -11.252117    42A    -11.252099
      43A    -11.251310    44A    -11.251291    45A    -11.251276
      46A    -11.251262    47A    -11.251260    48A    -11.251200
      49A    -11.250760    50A    -11.250756    51A    -11.250727
      52A    -11.250706    53A    -11.250678    54A    -11.250659
      55A     -1.243809    56A     -1.219591    57A     -1.219579
      58A     -1.189333    59A     -1.189322    60A     -1.180704
      61A     -1.157362    62A     -1.148775    63A     -1.135261
      64A     -1.135242    65A     -1.113001    66A     -1.112993
      67A     -1.082202    68A     -1.082190    69A     -1.078369
      70A     -1.065793    71A     -1.065786    72A     -1.039183
      73A     -1.024027    74A     -1.021520    75A     -1.021466
      76A     -1.017534    77A     -1.012612    78A     -0.986797
      79A     -0.986739    80A     -0.961681    81A     -0.961628
      82A     -0.894079    83A     -0.894057    84A     -0.887678
      85A     -0.885918    86A     -0.885884    87A     -0.881157
      88A     -0.881108    89A     -0.861688    90A     -0.837231
      91A     -0.817989    92A     -0.816364    93A     -0.811896
      94A     -0.811889    95A     -0.794486    96A     -0.794474
      97A     -0.746367    98A     -0.744613    99A     -0.733176
     100A     -0.733160   101A     -0.731973   102A     -0.731951
     103A     -0.716259   104A     -0.698765   105A     -0.698734
     106A     -0.693365   107A     -0.693328   108A     -0.661022
     109A     -0.652867   110A     -0.650903   111A     -0.650054
     112A     -0.650045   113A     -0.639155   114A     -0.639135
     115A     -0.629479   116A     -0.627277   117A     -0.627271
     118A     -0.606427   119A     -0.605646   120A     -0.601411
     121A     -0.599530   122A     -0.599470   123A     -0.593393
     124A     -0.590959   125A     -0.590928   126A     -0.585099
     127A     -0.576429   128A     -0.576316   129A     -0.567132
     130A     -0.567109   131A     -0.565714   132A     -0.565702
     133A     -0.558476   134A     -0.554641   135A     -0.554636
     136A     -0.538387   137A     -0.538385   138A     -0.538154
     139A     -0.538140   140A     -0.529489   141A     -0.528087
     142A     -0.522660   143A     -0.522634   144A     -0.500298
     145A     -0.495525   146A     -0.493025   147A     -0.487757
     148A     -0.484832   149A     -0.481518   150A     -0.481516
     151A     -0.470260   152A     -0.470243   153A     -0.450754
     154A     -0.450684   155A     -0.438986   156A     -0.438955
     157A     -0.404640   158A     -0.404625   159A     -0.403257
     160A     -0.375312   161A     -0.375309   162A     -0.349005
     163A     -0.337451   164A     -0.336393   165A     -0.336360
     166A     -0.310981   167A     -0.297985   168A     -0.284195
     169A     -0.284142   170A     -0.224769   171A     -0.224711

  @DF-RHF Final Energy: -2055.89621997086715

   => Energetics <=

    Nuclear Repulsion Energy =           6452.5568002797781446
    One-Electron Energy =              -15636.5442255318484968
    Two-Electron Energy =                7128.0912052812045658
    Total Energy =                      -2055.8962199708666958
 Dipole X            :          0.0015391           -0.0000085            0.0015306
 Dipole Y            :        117.1717186         -117.1648546            0.0068640
 Dipole Z            :       -295.9329709          295.9302530           -0.0027179
 Magnitude           :                                                    0.0075395

    SAPT Results
  --------------------------------------------------------------------------------------------------------
    Electrostatics                -51.76990772 [mEh]     -32.48610755 [kcal/mol]    -135.92187400 [kJ/mol]
      Elst10,r                    -51.76990772 [mEh]     -32.48610755 [kcal/mol]    -135.92187400 [kJ/mol]

    Exchange                      147.88369861 [mEh]      92.79842190 [kcal/mol]     388.26859722 [kJ/mol]
      Exch10                      147.88369861 [mEh]      92.79842190 [kcal/mol]     388.26859722 [kJ/mol]
      Exch10(S^2)                 142.47412221 [mEh]      89.40386145 [kcal/mol]     374.06575632 [kJ/mol]

    Induction                     -48.69087213 [mEh]     -30.55398355 [kcal/mol]    -127.83786716 [kJ/mol]
      Ind20,r                     -77.24059203 [mEh]     -48.46920326 [kcal/mol]    -202.79514643 [kJ/mol]
      Exch-Ind20,r                 46.38042276 [mEh]      29.10415468 [kcal/mol]     121.77178318 [kJ/mol]
      delta HF,r (2)              -17.83070286 [mEh]     -11.18893497 [kcal/mol]     -46.81450392 [kJ/mol]

    Dispersion                    -56.30627712 [mEh]     -35.33272232 [kcal/mol]    -147.83211020 [kJ/mol]
      Disp20                      -64.30129376 [mEh]     -40.34967101 [kcal/mol]    -168.82302352 [kJ/mol]
      Exch-Disp20                   7.99501665 [mEh]       5.01694869 [kcal/mol]      20.99091332 [kJ/mol]
      Disp20 (SS)                 -32.15064688 [mEh]     -20.17483551 [kcal/mol]     -84.41151176 [kJ/mol]
      Disp20 (OS)                 -32.15064688 [mEh]     -20.17483551 [kcal/mol]     -84.41151176 [kJ/mol]
      Exch-Disp20 (SS)              4.95260823 [mEh]       3.10780859 [kcal/mol]      13.00307112 [kJ/mol]
      Exch-Disp20 (OS)              3.04240842 [mEh]       1.90914010 [kcal/mol]       7.98784219 [kJ/mol]

  Total HF                         47.42291876 [mEh]      29.75833080 [kcal/mol]     124.50885606 [kJ/mol]
  Total SAPT0                      -8.88335835 [mEh]      -5.57439153 [kcal/mol]     -23.32325414 [kJ/mol]

  Special recipe for scaled SAPT0 (see Manual):
    Electrostatics sSAPT0         -51.76990772 [mEh]     -32.48610755 [kcal/mol]    -135.92187400 [kJ/mol]
    Exchange sSAPT0               147.88369861 [mEh]      92.79842190 [kcal/mol]     388.26859722 [kJ/mol]
    Induction sSAPT0              -43.20471101 [mEh]     -27.11136547 [kcal/mol]    -113.43395313 [kJ/mol]
    Dispersion sSAPT0             -55.36057747 [mEh]     -34.73928683 [kcal/mol]    -145.34917612 [kJ/mol]
  Total sSAPT0                     -2.45149759 [mEh]      -1.53833796 [kcal/mol]      -6.43640603 [kJ/mol]
  --------------------------------------------------------------------------------------------------------

*** Psi4 exiting successfully. Buy a developer a beer!
