                               Psi4 1.9 release

  ==> Input File <==

--------------------------------------------------------------------------
memory 64 GB # how much memory is available ! Depends on the nodes/cores !

molecule dimer {
# monomer A
-1 1    # Charge and multiplicity
B -1.977592e-04  2.742729e-04 6.400034
F  1.123153e-16  1.430594e-17 7.812819
F  1.147860e+00  6.757812e-01 5.928893
F  1.191806e-02 -1.332011e+00 5.929095
F -1.159666e+00  6.560735e-01 5.929174
--
# monomer B
0 1     # Charge and multiplicity
C   -3.66844126402057      7.80375217008252      0.00190004133558
C   -4.84759871934653      7.13124183134024     -0.00046653359696
C   -4.89495929917518      5.69633040353158     -0.00103944469517
C   -3.65374067877320      4.98073034095895      0.00662099703436
C   -2.40942512149445      7.11398103667468      0.00209438359570
C   -2.42547734410473      5.68112195090346     -0.00491050527438
C   -1.19474401643570      7.78614419430947      0.00356656413763
C   0.03795902893699      7.09942164575698      0.00139585983271
C   0.03033258741920      5.66948955970466     -0.00408752508301
C   -1.20098450790502      4.96927034791531      0.00488220885047
C   1.27795782581485      7.77285944319479      0.00277170839332
C   2.48535808472416      7.08769688523756      0.00049722048857
C   2.48612868491717      5.65477081024076     -0.00644052849921
C   1.25408291964399      4.95607811366431      0.00518741308898
C   3.75171459140595      7.76391215098033      0.00062407186893
C   4.92356605618520      7.07878077698995     -0.00143240883900
C   4.95560727132542      5.64344746336949     -0.00159282164606
C   3.70680153420475      4.94121020833308      0.00349873852374
H   -3.65852113775815      8.89082741913536      0.00358502958574
H   -1.18921332975660      8.87412108735996      0.00753844057883
H   1.28429423888630      8.86083343548850      0.00693053253426
H   3.75354208679975      8.85103527897216      0.00214659618464
H   5.86995870320703      7.61379483465560     -0.00235777588134
H   -5.78823170750226      7.67630221293400     -0.00202638095293
C   -6.09197395869619      4.99326001364347     -0.00291168518608
C   -6.12866148031747      3.58258016879823     -0.00171050815740
C   -3.66457974004527      3.56418217974434     -0.00463560277484
C   -4.89429820469869      2.86108077590057      0.00453338221034
C   -2.43733499489796      2.84761165708481      0.00719617576166
C   -1.20922785759670      3.54788693497833     -0.00648285103018
C   1.24714157216223      3.53468075142962     -0.00729145743546
C   0.01517603956900      2.83311183930540      0.00439272578912
C   2.46764517244071      2.82128997725533      0.00449278391269
C   3.70254947457969      3.52466015442405     -0.00899517692985
C   6.14498038638375      4.92757236613191     -0.00282626685777
C   6.16658835886151      3.51658447594213     -0.00065971342101
C   4.92460995845939      2.80840792535402      0.00587903281610
H   7.08990550964105      5.46688776622306     -0.00658814770723
H   -7.03104175110130      5.54268795285765     -0.00714490013730
C   -7.33969804112295      2.85841153457957     -0.00333767559888
C   -7.36488195805880      1.47032337158330     -0.00157213747140
C   -4.90350460894690      1.44442681216000     -0.00628840166334
C   -6.13225715261081      0.73993935705394      0.00600164231964
C   -3.67687480051673      0.72669714267312      0.00433931473643
C   -2.44565658606518      1.42964113326212     -0.00597039546461
C   -1.22360068130162      0.71532450163492      0.00545886906656
C   0.00763786931376      1.41738314923765      0.00392452278437
C   1.23121980774686      0.70211669058719     -0.01490206287210
C   2.46082110053113      1.40329203612573      0.00460244601878
C   3.68443025419614      0.68719842821222      0.00377365974158
C   4.91870890153864      1.39173456118907     -0.00862816189375
C   7.36980207796101      2.77948220318441     -0.00242013321349
C   7.38016266612146      1.39121750785509     -0.00087345036788
C   6.13979953912259      0.67411862320065      0.00545489144369
H   -8.27919079934664      3.40711804112415     -0.00763522772059
H   8.31511347147953      3.31811809662368     -0.00663070901292
C   -8.59175593758115      0.72483255304480     -0.00123170985383
C   -8.59902460370342     -0.63263980622873      0.00089141472904
C   -6.13981313911873     -0.67413663715361     -0.00609792660607
C   -7.38018411213749     -1.39126618958160      0.00131813493501
C   -4.91868448025621     -1.39175501803000      0.00624257154343
C   -3.68443829568458     -0.68723731573599     -0.00478966852105
C   -2.46081704024768     -1.40334517882457      0.00575341766833
C   -1.23116201232071     -0.70217386488055     -0.00636696112346
C   -0.00756962538737     -1.41741884941102      0.00108956317991
C   1.22364771588843     -0.71527537726392      0.01109518512883
C   2.44567064933149     -1.42964328900682     -0.00065482763106
C   3.67686670284649     -0.72670743155550     -0.00479541202602
C   6.13224884641929     -0.73997883984993     -0.00632338623858
C   4.90351914550401     -1.44445752054090      0.00751768830159
C   8.59901484869081      0.63260386666793     -0.00101133422380
C   8.59174548810050     -0.72485086719319      0.00072504603735
C   7.36486276438985     -1.47033266560598      0.00049486934466
H   -9.52830597181814      1.27684744919284     -0.00270163681798
H   9.54141097460619      1.17457248844457     -0.00206336648518
C   -7.36983790976868     -2.77954514593389      0.00312634335708
C   -4.92459910905015     -2.80843725734101     -0.00460528907921
C   -6.16662249566744     -3.51665219282533      0.00169655107992
C   -3.70251035970491     -3.52468154912026      0.00571878010666
C   -2.46764698511392     -2.82132596280400     -0.00632585824990
C   -0.01513347410770     -2.83314164539971     -0.00604426974092
C   -1.24712184122656     -3.53473217556300      0.00551968366725
C   1.20924506964357     -3.54791467864352      0.00805871345849
C   2.43733602215464     -2.84764173817541     -0.00608104485234
C   4.89430234377080     -2.86112296828604     -0.00526030478103
C   3.66461525504104     -3.56421984553201      0.00761911515957
C   6.12863901474565     -3.58258405771778      0.00096495711699
C   7.33967266469532     -2.85841330737039      0.00248018319869
H   -9.54144911125902     -1.17456346666430      0.00226083090216
H   9.52826186807155     -1.27691907390448      0.00197485379837
H   -8.31516504384864     -3.31814985321231      0.00729857188773
H   8.27915514249207     -3.40714078989363      0.00681973918158
C   -6.14499418870218     -4.92764727278338      0.00302254913999
C   -3.70678334799751     -4.94126171411716     -0.00679841894792
C   -4.95559005800169     -5.64349397349412      0.00116871569699
C   -2.48612132622665     -5.65478557440947      0.00614125209662
C   -1.25405833548005     -4.95612205000132     -0.00503435388927
C   1.20101257386816     -4.96928038819302     -0.00385322963129
C   -0.03033667441341     -5.66952030313900      0.00398997003238
C   3.65375010132847     -4.98074377541453     -0.00309522988330
C   2.42549269587528     -5.68117463552727      0.00628170066869
C   6.09196561781097     -4.99325796338655      0.00325918379042
C   4.89497644461045     -5.69634842095790      0.00202298796027
H   -7.08989238804069     -5.46699984223871      0.00742531082125
H   7.03105520920009     -5.54265853633254      0.00683896355417
C   -4.92354532219813     -7.07882109967734      0.00061394679214
C   -2.48534208823777     -7.08772807792913     -0.00189594564379
C   -3.75168589177895     -7.76394715763627     -0.00170126671874
C   -0.03794895698805     -7.09946487446944     -0.00168022049625
C   -1.27795610040136     -7.77290438466689     -0.00366491325785
C   2.40944432072629     -7.11402201200282     -0.00081701968533
C   1.19474993715296     -7.78618536556242     -0.00296931056689
C   4.84762105249800     -7.13126211057943      0.00168979497423
C   3.66847160587561     -7.80378799294376     -0.00065863938960
H   -5.86994035041618     -7.61383059804164      0.00215798365757
H   5.78824962538815     -7.67633218931421      0.00281691445618
H   -3.75352693944918     -8.85107156923607     -0.00353718114765
H   -1.28430440589466     -8.86087539249706     -0.00809229711623
H   1.18922157469537     -8.87416062058945     -0.00706194725726
H   3.65854661482387     -8.89086063405326     -0.00231318081200

    units angstrom      # Angstroms are the default
    no_reorient         # Geometry fixed, default
    symmetry c1         # C1 symmetry, default
}

set {
    scf_type DF         # Density fitting, faster than exact integrals
    freeze_core True    # Freeze core electrons
    basis jun-cc-pVDZ   # Jun-cc-pVDZ basis set, recommended for sSAPT0 in https://doi.org/10.1063/1.4867135
}

energy('ssapt0')        # Compute sSAPT0 energy, includes also SAPT0
--------------------------------------------------------------------------

  //              Dimer HF             //
    Molecular point group: c1
  Charge       = -1
  Multiplicity = 1
  Basis Set: JUN-CC-PVDZ
    Blend: JUN-CC-PVDZ
  Basis Set: (JUN-CC-PVDZ AUX)
    Blend: JUN-CC-PVDZ-JKFIT
  @DF-RHF Final Energy: -4073.10411712078212
    Total Energy =                      -4073.1041171207834850
 Dipole X            :         -0.0005578           -0.0000548           -0.0006126
 Dipole Y            :          0.0010344           -0.0002464            0.0007880
 Dipole Z            :         27.8688847          -38.0877131          -10.2188284
 Magnitude           :                                                   10.2188284
  //            Monomer A HF           //
    Molecular point group: c1
  Multiplicity = 1
  Basis Set: JUN-CC-PVDZ
    Blend: JUN-CC-PVDZ
  Basis Set: (JUN-CC-PVDZ AUX)
    Blend: JUN-CC-PVDZ-JKFIT
  @DF-RHF Final Energy:  -422.77150919768610
    Total Energy =                       -422.7715091976861004
  //            Monomer B HF           //
    Molecular point group: c1

    Geometry (in Angstrom), charge = 0, multiplicity = 1:

       Center              X                  Y                   Z               Mass
    ------------   -----------------  -----------------  -----------------  -----------------
      Gh(B)          -0.000201921932     0.000288800891     5.959227535584    11.009305360000
      Gh(F)          -0.000004162732     0.000014527991     7.372012535584    18.998403162730
      Gh(F)           1.147855837268     0.675795727991     5.488086535584    18.998403162730
      Gh(F)           0.011913897268    -1.331996472009     5.488288535584    18.998403162730
      Gh(F)          -1.159670162732     0.656088027991     5.488367535584    18.998403162730
         C           -3.668445426752     7.803766698073    -0.438906423080    12.000000000000
         C           -4.847602882078     7.131256359331    -0.441272998013    12.000000000000
         C           -4.894963461907     5.696344931522    -0.441845909111    12.000000000000
         C           -3.653744841505     4.980744868950    -0.434185467382    12.000000000000
         C           -2.409429284226     7.113995564665    -0.438712080820    12.000000000000
         C           -2.425481506836     5.681136478894    -0.445716969690    12.000000000000
         C           -1.194748179167     7.786158722300    -0.437239900278    12.000000000000
         C            0.037954866205     7.099436173748    -0.439410604583    12.000000000000
         C            0.030328424687     5.669504087695    -0.444893989499    12.000000000000
         C           -1.200988670637     4.969284875906    -0.435924255566    12.000000000000
         C            1.277953663083     7.772873971185    -0.438034756023    12.000000000000
         C            2.485353921992     7.087711413228    -0.440309243927    12.000000000000
         C            2.486124522185     5.654785338231    -0.447246992915    12.000000000000
         C            1.254078756912     4.956092641655    -0.435619051327    12.000000000000
         C            3.751710428674     7.763926678971    -0.440182392547    12.000000000000
         C            4.923561893453     7.078795304981    -0.442238873255    12.000000000000
         C            4.955603108594     5.643461991360    -0.442399286062    12.000000000000
         C            3.706797371473     4.941224736324    -0.437307725892    12.000000000000
         H           -3.658525300490     8.890841947126    -0.437221434830     1.007825032230
         H           -1.189217492488     8.874135615351    -0.433268023837     1.007825032230
         H            1.284290076155     8.860847963479    -0.433875931882     1.007825032230
         H            3.753537924068     8.851049806963    -0.438659868231     1.007825032230
         H            5.869954540475     7.613809362646    -0.443164240297     1.007825032230
         H           -5.788235870234     7.676316740925    -0.442832845369     1.007825032230
         C           -6.091978121428     4.993274541634    -0.443718149602    12.000000000000
         C           -6.128665643049     3.582594696789    -0.442516972573    12.000000000000
         C           -3.664583902777     3.564196707735    -0.445442067191    12.000000000000
         C           -4.894302367430     2.861095303891    -0.436273082206    12.000000000000
         C           -2.437339157630     2.847626185075    -0.433610288654    12.000000000000
         C           -1.209232020328     3.547901462969    -0.447289315446    12.000000000000
         C            1.247137409430     3.534695279420    -0.448097921851    12.000000000000
         C            0.015171876837     2.833126367296    -0.436413738627    12.000000000000
         C            2.467641009709     2.821304505246    -0.436313680503    12.000000000000
         C            3.702545311848     3.524674682415    -0.449801641346    12.000000000000
         C            6.144976223652     4.927586894122    -0.443632731274    12.000000000000
         C            6.166584196130     3.516599003933    -0.441466177837    12.000000000000
         C            4.924605795728     2.808422453345    -0.434927431600    12.000000000000
         H            7.089901346909     5.466902294214    -0.447394612123     1.007825032230
         H           -7.031045913833     5.542702480848    -0.447951364553     1.007825032230
         C           -7.339702203855     2.858426062570    -0.444144140015    12.000000000000
         C           -7.364886120791     1.470337899574    -0.442378601887    12.000000000000
         C           -4.903508771679     1.444441340151    -0.447094866079    12.000000000000
         C           -6.132261315343     0.739953885044    -0.434804822096    12.000000000000
         C           -3.676878963248     0.726711670664    -0.436467149680    12.000000000000
         C           -2.445660748797     1.429655661253    -0.446776859881    12.000000000000
         C           -1.223604844033     0.715339029625    -0.435347595349    12.000000000000
         C            0.007633706582     1.417397677228    -0.436881941632    12.000000000000
         C            1.231215645015     0.702131218578    -0.455708527288    12.000000000000
         C            2.460816937799     1.403306564116    -0.436204018397    12.000000000000
         C            3.684426091464     0.687212956203    -0.437032804674    12.000000000000
         C            4.918704738807     1.391749089180    -0.449434626310    12.000000000000
         C            7.369797915229     2.779496731175    -0.443226597630    12.000000000000
         C            7.380158503390     1.391232035846    -0.441679914784    12.000000000000
         C            6.139795376391     0.674133151191    -0.435351572972    12.000000000000
         H           -8.279194962078     3.407132569115    -0.448441692137     1.007825032230
         H            8.315109308748     3.318132624614    -0.447437173429     1.007825032230
         C           -8.591760100313     0.724847081035    -0.442038174270    12.000000000000
         C           -8.599028766435    -0.632625278238    -0.439915049687    12.000000000000
         C           -6.139817301850    -0.674122109163    -0.446904391022    12.000000000000
         C           -7.380188274869    -1.391251661591    -0.439488329481    12.000000000000
         C           -4.918688642988    -1.391740490039    -0.434563892873    12.000000000000
         C           -3.684442458416    -0.687222787745    -0.445596132937    12.000000000000
         C           -2.460821202979    -1.403330650834    -0.435053046748    12.000000000000
         C           -1.231166175052    -0.702159336890    -0.447173425539    12.000000000000
         C           -0.007573788119    -1.417404321420    -0.439716901236    12.000000000000
         C            1.223643553157    -0.715260849273    -0.429711279287    12.000000000000
         C            2.445666486600    -1.429628761016    -0.441461292047    12.000000000000
         C            3.676862540115    -0.726692903565    -0.445601876442    12.000000000000
         C            6.132244683688    -0.739964311859    -0.447129850655    12.000000000000
         C            4.903514982772    -1.444442992550    -0.433288776114    12.000000000000
         C            8.599010685959     0.632618394658    -0.441817798640    12.000000000000
         C            8.591741325369    -0.724836339203    -0.440081418379    12.000000000000
         C            7.364858601658    -1.470318137615    -0.440311595071    12.000000000000
         H           -9.528310134550     1.276861977183    -0.443508101234     1.007825032230
         H            9.541406811874     1.174587016435    -0.442869830901     1.007825032230
         C           -7.369842072500    -2.779530617943    -0.437680121059    12.000000000000
         C           -4.924603271782    -2.808422729350    -0.445411753495    12.000000000000
         C           -6.166626658399    -3.516637664835    -0.439109913336    12.000000000000
         C           -3.702514522437    -3.524667021130    -0.435087684309    12.000000000000
         C           -2.467651147846    -2.821311434813    -0.447132322666    12.000000000000
         C           -0.015137636839    -2.833127117409    -0.446850734157    12.000000000000
         C           -1.247126003958    -3.534717647572    -0.435286780749    12.000000000000
         C            1.209240906912    -3.547900150653    -0.432747750958    12.000000000000
         C            2.437331859423    -2.847627210185    -0.446887509268    12.000000000000
         C            4.894298181039    -2.861108440295    -0.446066769197    12.000000000000
         C            3.664611092309    -3.564205317541    -0.433187349256    12.000000000000
         C            6.128634852014    -3.582569529727    -0.439841507299    12.000000000000
         C            7.339668501964    -2.858398779380    -0.438326281217    12.000000000000
         H           -9.541453273991    -1.174548938674    -0.438545633514     1.007825032230
         H            9.528257705340    -1.276904545914    -0.438831610618     1.007825032230
         H           -8.315169206580    -3.318135325222    -0.433507892528     1.007825032230
         H            8.279150979760    -3.407126261903    -0.433986725234     1.007825032230
         C           -6.144998351434    -4.927632744793    -0.437783915276    12.000000000000
         C           -3.706787510729    -4.941247186127    -0.447604883364    12.000000000000
         C           -4.955594220733    -5.643479445504    -0.439637748719    12.000000000000
         C           -2.486125488958    -5.654771046419    -0.434665212319    12.000000000000
         C           -1.254062498212    -4.956107522011    -0.445840818305    12.000000000000
         C            1.201008411136    -4.969265860202    -0.444659694047    12.000000000000
         C           -0.030340837145    -5.669505775148    -0.436816494384    12.000000000000
         C            3.653745938597    -4.980729247424    -0.443901694299    12.000000000000
         C            2.425488533144    -5.681160107537    -0.434524763747    12.000000000000
         C            6.091961455079    -4.993243435396    -0.437547280626    12.000000000000
         C            4.894972281879    -5.696333892967    -0.438783476456    12.000000000000
         H           -7.089896550772    -5.466985314248    -0.433381153595     1.007825032230
         H            7.031051046468    -5.542644008342    -0.433967500862     1.007825032230
         C           -4.923549484930    -7.078806571687    -0.440192517624    12.000000000000
         C           -2.485346250970    -7.087713549939    -0.442702410060    12.000000000000
         C           -3.751690054511    -7.763932629646    -0.442507731135    12.000000000000
         C           -0.037953119720    -7.099450346479    -0.442486684912    12.000000000000
         C           -1.277960263133    -7.772889856676    -0.444471377674    12.000000000000
         C            2.409440157995    -7.114007484012    -0.441623484101    12.000000000000
         C            1.194745774421    -7.786170837572    -0.443775774983    12.000000000000
         C            4.847616889766    -7.131247582589    -0.439116669442    12.000000000000
         C            3.668467443144    -7.803773464953    -0.441465103806    12.000000000000
         H           -5.869944513148    -7.613816070051    -0.438648480758     1.007825032230
         H            5.788245462656    -7.676317661324    -0.437989549960     1.007825032230
         H           -3.753531102181    -8.851057041246    -0.444343645564     1.007825032230
         H           -1.284308568626    -8.860860864507    -0.448898761532     1.007825032230
         H            1.189217411964    -8.874146092599    -0.447868411673     1.007825032230
         H            3.658542452092    -8.890846106063    -0.443119645228     1.007825032230

  Charge       = 0
  Multiplicity = 1
  Basis Set: JUN-CC-PVDZ
    Blend: JUN-CC-PVDZ
  Basis Set: (JUN-CC-PVDZ AUX)
    Blend: JUN-CC-PVDZ-JKFIT

    Orbital Energies [Eh]
    ---------------------

    Doubly Occupied:

       1A    -11.264054     2A    -11.263739     3A    -11.263738
       4A    -11.263397     5A    -11.263394     6A    -11.263359
       7A    -11.263202     8A    -11.263176     9A    -11.263172
      10A    -11.263015    11A    -11.262856    12A    -11.262852
      13A    -11.262373    14A    -11.262370    15A    -11.262296
      16A    -11.262295    17A    -11.262245    18A    -11.262209
      19A    -11.262165    20A    -11.262126    21A    -11.262125
      22A    -11.261971    23A    -11.261967    24A    -11.261847
      25A    -11.261833    26A    -11.261819    27A    -11.261815
      28A    -11.261767    29A    -11.261760    30A    -11.261687
      31A    -11.261660    32A    -11.261657    33A    -11.261631
      34A    -11.261630    35A    -11.261609    36A    -11.261562
      37A    -11.261422    38A    -11.261411    39A    -11.261405
      40A    -11.261398    41A    -11.261393    42A    -11.261384
      43A    -11.261380    44A    -11.261366    45A    -11.261361
      46A    -11.261338    47A    -11.261334    48A    -11.261330
      49A    -11.261177    50A    -11.261145    51A    -11.261143
      52A    -11.261063    53A    -11.261062    54A    -11.260991
      55A    -11.260023    56A    -11.260010    57A    -11.260007
      58A    -11.259978    59A    -11.259976    60A    -11.259960
      61A    -11.259400    62A    -11.259375    63A    -11.259373
      64A    -11.259321    65A    -11.259318    66A    -11.259289
      67A    -11.259027    68A    -11.259010    69A    -11.259008
      70A    -11.258980    71A    -11.258978    72A    -11.258967
      73A    -11.254596    74A    -11.254594    75A    -11.254593
      76A    -11.254590    77A    -11.254585    78A    -11.254582
      79A    -11.253747    80A    -11.253745    81A    -11.253742
      82A    -11.253741    83A    -11.253739    84A    -11.253733
      85A    -11.253663    86A    -11.253661    87A    -11.253658
      88A    -11.253657    89A    -11.253654    90A    -11.253649
      91A    -11.253123    92A    -11.253122    93A    -11.253121
      94A    -11.253118    95A    -11.253112    96A    -11.253111
      97A     -1.254145    98A     -1.239150    99A     -1.239150
     100A     -1.220593   101A     -1.220588   102A     -1.215619
     103A     -1.201154   104A     -1.195724   105A     -1.188310
     106A     -1.188308   107A     -1.173874   108A     -1.173871
     109A     -1.155784   110A     -1.155780   111A     -1.152888
     112A     -1.144827   113A     -1.144824   114A     -1.128706
     115A     -1.114865   116A     -1.113269   117A     -1.112649
     118A     -1.112635   119A     -1.111717   120A     -1.088567
     121A     -1.088552   122A     -1.077064   123A     -1.077063
     124A     -1.067762   125A     -1.067732   126A     -1.065133
     127A     -1.046927   128A     -1.046919   129A     -1.040615
     130A     -1.038837   131A     -1.038836   132A     -1.025400
     133A     -1.021571   134A     -1.021521   135A     -1.007298
     136A     -1.006943   137A     -1.003917   138A     -1.000642
     139A     -1.000594   140A     -0.991172   141A     -0.971130
     142A     -0.971082   143A     -0.955997   144A     -0.955942
     145A     -0.905771   146A     -0.905729   147A     -0.905644
     148A     -0.905604   149A     -0.904528   150A     -0.892542
     151A     -0.892482   152A     -0.890526   153A     -0.890469
     154A     -0.889601   155A     -0.872327   156A     -0.869140
     157A     -0.851656   158A     -0.848021   159A     -0.847999
     160A     -0.845757   161A     -0.843162   162A     -0.834691
     163A     -0.834678   164A     -0.828219   165A     -0.828215
     166A     -0.784681   167A     -0.784670   168A     -0.783808
     169A     -0.783781   170A     -0.782427   171A     -0.782407
     172A     -0.782191   173A     -0.767116   174A     -0.760964
     175A     -0.750739   176A     -0.733592   177A     -0.727198
     178A     -0.727185   179A     -0.725223   180A     -0.724665
     181A     -0.724647   182A     -0.718666   183A     -0.713929
     184A     -0.713923   185A     -0.699700   186A     -0.699688
     187A     -0.686299   188A     -0.686067   189A     -0.686064
     190A     -0.682289   191A     -0.682279   192A     -0.678923
     193A     -0.653753   194A     -0.651001   195A     -0.650971
     196A     -0.649976   197A     -0.649960   198A     -0.649674
     199A     -0.641095   200A     -0.641068   201A     -0.640199
     202A     -0.639263   203A     -0.636168   204A     -0.636141
     205A     -0.629269   206A     -0.617675   207A     -0.615408
     208A     -0.615388   209A     -0.608920   210A     -0.608914
     211A     -0.599185   212A     -0.599146   213A     -0.598877
     214A     -0.598753   215A     -0.598726   216A     -0.598204
     217A     -0.595175   218A     -0.595162   219A     -0.594847
     220A     -0.594409   221A     -0.592094   222A     -0.592091
     223A     -0.587565   224A     -0.577881   225A     -0.577871
     226A     -0.575734   227A     -0.575731   228A     -0.573495
     229A     -0.569571   230A     -0.568302   231A     -0.568278
     232A     -0.566884   233A     -0.566874   234A     -0.561001
     235A     -0.558862   236A     -0.558843   237A     -0.558517
     238A     -0.554495   239A     -0.550631   240A     -0.547560
     241A     -0.544341   242A     -0.535037   243A     -0.534999
     244A     -0.533658   245A     -0.533635   246A     -0.528185
     247A     -0.528170   248A     -0.527962   249A     -0.517321
     250A     -0.517287   251A     -0.515426   252A     -0.515421
     253A     -0.509747   254A     -0.509731   255A     -0.498143
     256A     -0.496574   257A     -0.496548   258A     -0.493843
     259A     -0.493833   260A     -0.489477   261A     -0.481556
     262A     -0.477489   263A     -0.477486   264A     -0.474108
     265A     -0.469577   266A     -0.466655   267A     -0.466650
     268A     -0.458877   269A     -0.446865   270A     -0.446804
     271A     -0.441101   272A     -0.440827   273A     -0.440802
     274A     -0.434758   275A     -0.433974   276A     -0.407450
     277A     -0.407426   278A     -0.386487   279A     -0.386438
     280A     -0.385799   281A     -0.385798   282A     -0.383830
     283A     -0.354401   284A     -0.354385   285A     -0.350739
     286A     -0.338171   287A     -0.335670   288A     -0.335601
     289A     -0.332781   290A     -0.332775   291A     -0.307166
     292A     -0.302028   293A     -0.301966   294A     -0.300914
     295A     -0.286244   296A     -0.256529   297A     -0.253580
     298A     -0.253527   299A     -0.204338   300A     -0.204248

  @DF-RHF Final Energy: -3650.33765873636548

   => Energetics <=

    Nuclear Repulsion Energy =          15611.4211649754324753
    One-Electron Energy =              -36072.0766597100810031
    Two-Electron Energy =               16810.3178359982848633
    Total Energy =                      -3650.3376587363636645
 Dipole X            :         -0.0009229            0.0002304           -0.0006924
 Dipole Y            :          0.0010883           -0.0013052           -0.0002169
 Dipole Z            :        499.7956964         -499.7987033           -0.0030069
 Magnitude           :                                                    0.0030933

    SAPT Results
  --------------------------------------------------------------------------------------------------------
    Electrostatics                  9.17879049 [mEh]       5.75977799 [kcal/mol]      24.09891112 [kJ/mol]
      Elst10,r                      9.17879049 [mEh]       5.75977799 [kcal/mol]      24.09891112 [kJ/mol]

    Exchange                       -0.00010775 [mEh]      -0.00006762 [kcal/mol]      -0.00028291 [kJ/mol]
      Exch10                       -0.00010775 [mEh]      -0.00006762 [kcal/mol]      -0.00028291 [kJ/mol]
      Exch10(S^2)                  -0.00010775 [mEh]      -0.00006762 [kcal/mol]      -0.00028291 [kJ/mol]

    Induction                      -4.12786947 [mEh]      -2.59027720 [kcal/mol]     -10.83771980 [kJ/mol]
      Ind20,r                      -4.15158161 [mEh]      -2.60515679 [kcal/mol]     -10.89997601 [kJ/mol]
      Exch-Ind20,r                  0.00035226 [mEh]       0.00022105 [kcal/mol]       0.00092485 [kJ/mol]
      delta HF,r (2)                0.02335988 [mEh]       0.01465855 [kcal/mol]       0.06133136 [kJ/mol]

    Dispersion                     -0.68676530 [mEh]      -0.43095173 [kcal/mol]      -1.80310205 [kJ/mol]
      Disp20                       -0.68709319 [mEh]      -0.43115749 [kcal/mol]      -1.80396293 [kJ/mol]
      Exch-Disp20                   0.00032789 [mEh]       0.00020576 [kcal/mol]       0.00086088 [kJ/mol]
      Disp20 (SS)                  -0.34354660 [mEh]      -0.21557874 [kcal/mol]      -0.90198147 [kJ/mol]
      Disp20 (OS)                  -0.34354660 [mEh]      -0.21557874 [kcal/mol]      -0.90198147 [kJ/mol]
      Exch-Disp20 (SS)              0.00025266 [mEh]       0.00015855 [kcal/mol]       0.00066336 [kJ/mol]
      Exch-Disp20 (OS)              0.00007523 [mEh]       0.00004721 [kcal/mol]       0.00019753 [kJ/mol]

  Total HF                          5.05081327 [mEh]       3.16943318 [kcal/mol]      13.26090841 [kJ/mol]
  Total SAPT0                       4.36404797 [mEh]       2.73848144 [kcal/mol]      11.45780636 [kJ/mol]

  Special recipe for scaled SAPT0 (see Manual):
    Electrostatics sSAPT0           9.17879049 [mEh]       5.75977799 [kcal/mol]      24.09891112 [kJ/mol]
    Exchange sSAPT0                -0.00010775 [mEh]      -0.00006762 [kcal/mol]      -0.00028291 [kJ/mol]
    Induction sSAPT0               -4.12786947 [mEh]      -2.59027720 [kcal/mol]     -10.83771980 [kJ/mol]
    Dispersion sSAPT0              -0.68676530 [mEh]      -0.43095173 [kcal/mol]      -1.80310205 [kJ/mol]
  Total sSAPT0                      4.36404797 [mEh]       2.73848144 [kcal/mol]      11.45780636 [kJ/mol]
  --------------------------------------------------------------------------------------------------------

*** Psi4 exiting successfully. Buy a developer a beer!
