                               Psi4 1.9 release

  ==> Input File <==

--------------------------------------------------------------------------
memory 64 GB # how much memory is available ! Depends on the nodes/cores !

molecule dimer {
# monomer A
+1 1    # Charge and multiplicity
C  0.680067 1.417258 -6.215929
C -0.680504 1.419286 -6.215545
N -1.085635 1.420284 -4.897221
C  0.000108 1.423560 -4.115820
C -2.477365 1.469690 -4.429242
N  1.085222 1.420284 -4.897221
H  1.385146 1.409430 -7.033368
H -1.385302 1.419096 -7.033214
H -0.000009 1.425307 -3.034731
C  2.478117 1.403392 -4.432123
H  2.490592 1.430737 -3.341870
H  2.967028 0.489946 -4.779299
H  3.001428 2.278875 -4.823595
H -2.857359 2.491761 -4.509201
H -3.082679 0.799606 -5.042306
H -2.518128 1.142706 -3.389294
--
# monomer B
0 1     # Charge and multiplicity
C   -3.66844126402057      7.80375217008252      0.00190004133558
C   -4.84759871934653      7.13124183134024     -0.00046653359696
C   -4.89495929917518      5.69633040353158     -0.00103944469517
C   -3.65374067877320      4.98073034095895      0.00662099703436
C   -2.40942512149445      7.11398103667468      0.00209438359570
C   -2.42547734410473      5.68112195090346     -0.00491050527438
C   -1.19474401643570      7.78614419430947      0.00356656413763
C   0.03795902893699      7.09942164575698      0.00139585983271
C   0.03033258741920      5.66948955970466     -0.00408752508301
C   -1.20098450790502      4.96927034791531      0.00488220885047
C   1.27795782581485      7.77285944319479      0.00277170839332
C   2.48535808472416      7.08769688523756      0.00049722048857
C   2.48612868491717      5.65477081024076     -0.00644052849921
C   1.25408291964399      4.95607811366431      0.00518741308898
C   3.75171459140595      7.76391215098033      0.00062407186893
C   4.92356605618520      7.07878077698995     -0.00143240883900
C   4.95560727132542      5.64344746336949     -0.00159282164606
C   3.70680153420475      4.94121020833308      0.00349873852374
H   -3.65852113775815      8.89082741913536      0.00358502958574
H   -1.18921332975660      8.87412108735996      0.00753844057883
H   1.28429423888630      8.86083343548850      0.00693053253426
H   3.75354208679975      8.85103527897216      0.00214659618464
H   5.86995870320703      7.61379483465560     -0.00235777588134
H   -5.78823170750226      7.67630221293400     -0.00202638095293
C   -6.09197395869619      4.99326001364347     -0.00291168518608
C   -6.12866148031747      3.58258016879823     -0.00171050815740
C   -3.66457974004527      3.56418217974434     -0.00463560277484
C   -4.89429820469869      2.86108077590057      0.00453338221034
C   -2.43733499489796      2.84761165708481      0.00719617576166
C   -1.20922785759670      3.54788693497833     -0.00648285103018
C   1.24714157216223      3.53468075142962     -0.00729145743546
C   0.01517603956900      2.83311183930540      0.00439272578912
C   2.46764517244071      2.82128997725533      0.00449278391269
C   3.70254947457969      3.52466015442405     -0.00899517692985
C   6.14498038638375      4.92757236613191     -0.00282626685777
C   6.16658835886151      3.51658447594213     -0.00065971342101
C   4.92460995845939      2.80840792535402      0.00587903281610
H   7.08990550964105      5.46688776622306     -0.00658814770723
H   -7.03104175110130      5.54268795285765     -0.00714490013730
C   -7.33969804112295      2.85841153457957     -0.00333767559888
C   -7.36488195805880      1.47032337158330     -0.00157213747140
C   -4.90350460894690      1.44442681216000     -0.00628840166334
C   -6.13225715261081      0.73993935705394      0.00600164231964
C   -3.67687480051673      0.72669714267312      0.00433931473643
C   -2.44565658606518      1.42964113326212     -0.00597039546461
C   -1.22360068130162      0.71532450163492      0.00545886906656
C   0.00763786931376      1.41738314923765      0.00392452278437
C   1.23121980774686      0.70211669058719     -0.01490206287210
C   2.46082110053113      1.40329203612573      0.00460244601878
C   3.68443025419614      0.68719842821222      0.00377365974158
C   4.91870890153864      1.39173456118907     -0.00862816189375
C   7.36980207796101      2.77948220318441     -0.00242013321349
C   7.38016266612146      1.39121750785509     -0.00087345036788
C   6.13979953912259      0.67411862320065      0.00545489144369
H   -8.27919079934664      3.40711804112415     -0.00763522772059
H   8.31511347147953      3.31811809662368     -0.00663070901292
C   -8.59175593758115      0.72483255304480     -0.00123170985383
C   -8.59902460370342     -0.63263980622873      0.00089141472904
C   -6.13981313911873     -0.67413663715361     -0.00609792660607
C   -7.38018411213749     -1.39126618958160      0.00131813493501
C   -4.91868448025621     -1.39175501803000      0.00624257154343
C   -3.68443829568458     -0.68723731573599     -0.00478966852105
C   -2.46081704024768     -1.40334517882457      0.00575341766833
C   -1.23116201232071     -0.70217386488055     -0.00636696112346
C   -0.00756962538737     -1.41741884941102      0.00108956317991
C   1.22364771588843     -0.71527537726392      0.01109518512883
C   2.44567064933149     -1.42964328900682     -0.00065482763106
C   3.67686670284649     -0.72670743155550     -0.00479541202602
C   6.13224884641929     -0.73997883984993     -0.00632338623858
C   4.90351914550401     -1.44445752054090      0.00751768830159
C   8.59901484869081      0.63260386666793     -0.00101133422380
C   8.59174548810050     -0.72485086719319      0.00072504603735
C   7.36486276438985     -1.47033266560598      0.00049486934466
H   -9.52830597181814      1.27684744919284     -0.00270163681798
H   9.54141097460619      1.17457248844457     -0.00206336648518
C   -7.36983790976868     -2.77954514593389      0.00312634335708
C   -4.92459910905015     -2.80843725734101     -0.00460528907921
C   -6.16662249566744     -3.51665219282533      0.00169655107992
C   -3.70251035970491     -3.52468154912026      0.00571878010666
C   -2.46764698511392     -2.82132596280400     -0.00632585824990
C   -0.01513347410770     -2.83314164539971     -0.00604426974092
C   -1.24712184122656     -3.53473217556300      0.00551968366725
C   1.20924506964357     -3.54791467864352      0.00805871345849
C   2.43733602215464     -2.84764173817541     -0.00608104485234
C   4.89430234377080     -2.86112296828604     -0.00526030478103
C   3.66461525504104     -3.56421984553201      0.00761911515957
C   6.12863901474565     -3.58258405771778      0.00096495711699
C   7.33967266469532     -2.85841330737039      0.00248018319869
H   -9.54144911125902     -1.17456346666430      0.00226083090216
H   9.52826186807155     -1.27691907390448      0.00197485379837
H   -8.31516504384864     -3.31814985321231      0.00729857188773
H   8.27915514249207     -3.40714078989363      0.00681973918158
C   -6.14499418870218     -4.92764727278338      0.00302254913999
C   -3.70678334799751     -4.94126171411716     -0.00679841894792
C   -4.95559005800169     -5.64349397349412      0.00116871569699
C   -2.48612132622665     -5.65478557440947      0.00614125209662
C   -1.25405833548005     -4.95612205000132     -0.00503435388927
C   1.20101257386816     -4.96928038819302     -0.00385322963129
C   -0.03033667441341     -5.66952030313900      0.00398997003238
C   3.65375010132847     -4.98074377541453     -0.00309522988330
C   2.42549269587528     -5.68117463552727      0.00628170066869
C   6.09196561781097     -4.99325796338655      0.00325918379042
C   4.89497644461045     -5.69634842095790      0.00202298796027
H   -7.08989238804069     -5.46699984223871      0.00742531082125
H   7.03105520920009     -5.54265853633254      0.00683896355417
C   -4.92354532219813     -7.07882109967734      0.00061394679214
C   -2.48534208823777     -7.08772807792913     -0.00189594564379
C   -3.75168589177895     -7.76394715763627     -0.00170126671874
C   -0.03794895698805     -7.09946487446944     -0.00168022049625
C   -1.27795610040136     -7.77290438466689     -0.00366491325785
C   2.40944432072629     -7.11402201200282     -0.00081701968533
C   1.19474993715296     -7.78618536556242     -0.00296931056689
C   4.84762105249800     -7.13126211057943      0.00168979497423
C   3.66847160587561     -7.80378799294376     -0.00065863938960
H   -5.86994035041618     -7.61383059804164      0.00215798365757
H   5.78824962538815     -7.67633218931421      0.00281691445618
H   -3.75352693944918     -8.85107156923607     -0.00353718114765
H   -1.28430440589466     -8.86087539249706     -0.00809229711623
H   1.18922157469537     -8.87416062058945     -0.00706194725726
H   3.65854661482387     -8.89086063405326     -0.00231318081200

    units angstrom      # Angstroms are the default
    no_reorient         # Geometry fixed, default
    symmetry c1         # C1 symmetry, default
}

set {
    scf_type DF         # Density fitting, faster than exact integrals
    freeze_core True    # Freeze core electrons
    basis jun-cc-pVDZ   # Jun-cc-pVDZ basis set, recommended for sSAPT0 in https://doi.org/10.1063/1.4867135
}

energy('ssapt0')        # Compute sSAPT0 energy, includes also SAPT0
--------------------------------------------------------------------------

  //              Dimer HF             //
    Molecular point group: c1
  Charge       = 1
  Multiplicity = 1
  Basis Set: JUN-CC-PVDZ
    Blend: JUN-CC-PVDZ
  Basis Set: (JUN-CC-PVDZ AUX)
    Blend: JUN-CC-PVDZ-JKFIT
  @DF-RHF Final Energy: -3953.65942495729951
    Total Energy =                      -3953.6594249572990520
 Dipole X            :         -0.0035116            0.0004804           -0.0030312
 Dipole Y            :         -7.1783693            8.7122315            1.5338622
 Dipole Z            :         21.7677650          -28.4798247           -6.7120597
 Magnitude           :                                                    6.8850917
  //            Monomer A HF           //
    Molecular point group: c1
  Multiplicity = 1
  Basis Set: JUN-CC-PVDZ
    Blend: JUN-CC-PVDZ
  Basis Set: (JUN-CC-PVDZ AUX)
    Blend: JUN-CC-PVDZ-JKFIT
  @DF-RHF Final Energy:  -303.29787399730833
    Total Energy =                       -303.2978739973083293
  //            Monomer B HF           //
    Molecular point group: c1

    Geometry (in Angstrom), charge = 0, multiplicity = 1:

       Center              X                  Y                   Z               Mass
    ------------   -----------------  -----------------  -----------------  -----------------
      Gh(C)           0.680062820275     1.308604348936    -5.834723399864    12.000000000000
      Gh(C)          -0.680508179725     1.310632348936    -5.834339399864    12.000000000000
      Gh(N)          -1.085639179725     1.311630348936    -4.516015399864    14.003074004430
      Gh(C)           0.000103820275     1.314906348936    -3.734614399864    12.000000000000
      Gh(C)          -2.477369179725     1.361036348936    -4.048036399864    12.000000000000
      Gh(N)           1.085217820275     1.311630348936    -4.516015399864    14.003074004430
      Gh(H)           1.385141820275     1.300776348936    -6.652162399864     1.007825032230
      Gh(H)          -1.385306179725     1.310442348936    -6.652008399864     1.007825032230
      Gh(H)          -0.000013179725     1.316653348936    -2.653525399864     1.007825032230
      Gh(C)           2.478112820275     1.294738348936    -4.050917399864    12.000000000000
      Gh(H)           2.490587820275     1.322083348936    -2.960664399864     1.007825032230
      Gh(H)           2.967023820275     0.381292348936    -4.398093399864     1.007825032230
      Gh(H)           3.001423820275     2.170221348936    -4.442389399864     1.007825032230
      Gh(H)          -2.857363179725     2.383107348936    -4.127995399864     1.007825032230
      Gh(H)          -3.082683179725     0.690952348936    -4.661100399864     1.007825032230
      Gh(H)          -2.518132179725     1.034052348936    -3.008088399864     1.007825032230
         C           -3.668445443746     7.695098519018     0.383105641472    12.000000000000
         C           -4.847602899072     7.022588180276     0.380739066539    12.000000000000
         C           -4.894963478901     5.587676752467     0.380166155441    12.000000000000
         C           -3.653744858499     4.872076689895     0.387826597170    12.000000000000
         C           -2.409429301220     7.005327385610     0.383299983732    12.000000000000
         C           -2.425481523830     5.572468299839     0.376295094862    12.000000000000
         C           -1.194748196161     7.677490543245     0.384772164274    12.000000000000
         C            0.037954849212     6.990767994693     0.382601459969    12.000000000000
         C            0.030328407694     5.560835908640     0.377118075053    12.000000000000
         C           -1.200988687630     4.860616696851     0.386087808986    12.000000000000
         C            1.277953646089     7.664205792130     0.383977308529    12.000000000000
         C            2.485353904999     6.979043234173     0.381702820625    12.000000000000
         C            2.486124505192     5.546117159176     0.374765071637    12.000000000000
         C            1.254078739919     4.847424462600     0.386393013225    12.000000000000
         C            3.751710411681     7.655258499916     0.381829672005    12.000000000000
         C            4.923561876460     6.970127125926     0.379773191297    12.000000000000
         C            4.955603091600     5.534793812305     0.379612778490    12.000000000000
         C            3.706797354479     4.832556557269     0.384704338660    12.000000000000
         H           -3.658525317484     8.782173768071     0.384790629722     1.007825032230
         H           -1.189217509482     8.765467436296     0.388744040715     1.007825032230
         H            1.284290059161     8.752179784424     0.388136132670     1.007825032230
         H            3.753537907074     8.742381627908     0.383352196321     1.007825032230
         H            5.869954523482     7.505141183591     0.378847824255     1.007825032230
         H           -5.788235887228     7.567648561870     0.379179219183     1.007825032230
         C           -6.091978138422     4.884606362579     0.378293914950    12.000000000000
         C           -6.128665660043     3.473926517734     0.379495091979    12.000000000000
         C           -3.664583919771     3.455528528680     0.376569997361    12.000000000000
         C           -4.894302384424     2.752427124836     0.385738982346    12.000000000000
         C           -2.437339174623     2.738958006020     0.388401775898    12.000000000000
         C           -1.209232037322     3.439233283914     0.374722749106    12.000000000000
         C            1.247137392437     3.426027100365     0.373914142700    12.000000000000
         C            0.015171859844     2.724458188241     0.385598325925    12.000000000000
         C            2.467640992715     2.712636326191     0.385698384049    12.000000000000
         C            3.702545294854     3.416006503360     0.372210423206    12.000000000000
         C            6.144976206658     4.818918715067     0.378379333278    12.000000000000
         C            6.166584179136     3.407930824878     0.380545886715    12.000000000000
         C            4.924605778734     2.699754274290     0.387084632952    12.000000000000
         H            7.089901329916     5.358234115159     0.374617452429     1.007825032230
         H           -7.031045930827     5.434034301793     0.374060699999     1.007825032230
         C           -7.339702220848     2.749757883515     0.377867924537    12.000000000000
         C           -7.364886137784     1.361669720519     0.379633462665    12.000000000000
         C           -4.903508788672     1.335773161096     0.374917198473    12.000000000000
         C           -6.132261332336     0.631285705989     0.387207242456    12.000000000000
         C           -3.676878980242     0.618043491609     0.385544914872    12.000000000000
         C           -2.445660765791     1.320987482198     0.375235204671    12.000000000000
         C           -1.223604861027     0.606670850570     0.386664469203    12.000000000000
         C            0.007633689588     1.308729498173     0.385130122920    12.000000000000
         C            1.231215628021     0.593463039523     0.366303537264    12.000000000000
         C            2.460816920806     1.294638385061     0.385808046155    12.000000000000
         C            3.684426074471     0.578544777148     0.384979259878    12.000000000000
         C            4.918704721813     1.283080910125     0.372577438242    12.000000000000
         C            7.369797898236     2.670828552120     0.378785466922    12.000000000000
         C            7.380158486396     1.282563856791     0.380332149768    12.000000000000
         C            6.139795359397     0.565464972136     0.386660491580    12.000000000000
         H           -8.279194979072     3.298464390060     0.373570372415     1.007825032230
         H            8.315109291754     3.209464445559     0.374574891123     1.007825032230
         C           -8.591760117307     0.616178901980     0.379973890282    12.000000000000
         C           -8.599028783429    -0.741293457293     0.382097014865    12.000000000000
         C           -6.139817318844    -0.782790288218     0.375107673530    12.000000000000
         C           -7.380188291863    -1.499919840646     0.382523735071    12.000000000000
         C           -4.918688659982    -1.500408669094     0.387448171679    12.000000000000
         C           -3.684442475410    -0.795890966800     0.376415931615    12.000000000000
         C           -2.460821219973    -1.511998829889     0.386959017804    12.000000000000
         C           -1.231166192046    -0.810827515945     0.374838639012    12.000000000000
         C           -0.007573805113    -1.526072500475     0.382295163316    12.000000000000
         C            1.223643536163    -0.823929028328     0.392300785265    12.000000000000
         C            2.445666469606    -1.538296940071     0.380550772505    12.000000000000
         C            3.676862523121    -0.835361082620     0.376410188110    12.000000000000
         C            6.132244666694    -0.848632490914     0.374882213897    12.000000000000
         C            4.903514965779    -1.553111171605     0.388723288438    12.000000000000
         C            8.599010668965     0.523950215603     0.380194265912    12.000000000000
         C            8.591741308375    -0.833504518258     0.381930646173    12.000000000000
         C            7.364858584664    -1.578986316670     0.381700469481    12.000000000000
         H           -9.528310151544     1.168193798128     0.378503963318     1.007825032230
         H            9.541406794881     1.065918837380     0.379142233651     1.007825032230
         C           -7.369842089494    -2.888198796998     0.384331943493    12.000000000000
         C           -4.924603288776    -2.917090908405     0.376600311057    12.000000000000
         C           -6.166626675393    -3.625305843890     0.382902151216    12.000000000000
         C           -3.702514539430    -3.633335200185     0.386924380243    12.000000000000
         C           -2.467651164839    -2.929979613868     0.374879741886    12.000000000000
         C           -0.015137653833    -2.941795296464     0.375161330395    12.000000000000
         C           -1.247126020952    -3.643385826627     0.386725283803    12.000000000000
         C            1.209240889918    -3.656568329708     0.389264313594    12.000000000000
         C            2.437331842429    -2.956295389240     0.375124555284    12.000000000000
         C            4.894298164045    -2.969776619350     0.375945295355    12.000000000000
         C            3.664611075316    -3.672873496596     0.388824715296    12.000000000000
         C            6.128634835020    -3.691237708782     0.382170557253    12.000000000000
         C            7.339668484970    -2.967066958435     0.383685783335    12.000000000000
         H           -9.541453290984    -1.283217117729     0.383466431038     1.007825032230
         H            9.528257688346    -1.385572724969     0.383180453934     1.007825032230
         H           -8.315169223574    -3.426803504277     0.388504172024     1.007825032230
         H            8.279150962767    -3.515794440958     0.388025339318     1.007825032230
         C           -6.144998368428    -5.036300923848     0.384228149276    12.000000000000
         C           -3.706787527723    -5.049915365182     0.374407181188    12.000000000000
         C           -4.955594237727    -5.752147624559     0.382374315833    12.000000000000
         C           -2.486125505952    -5.763439225474     0.387346852233    12.000000000000
         C           -1.254062515205    -5.064775701066     0.376171246247    12.000000000000
         C            1.201008394143    -5.077934039257     0.377352370505    12.000000000000
         C           -0.030340854139    -5.778173954203     0.385195570168    12.000000000000
         C            3.653745921603    -5.089397426479     0.378110370253    12.000000000000
         C            2.425488516150    -5.789828286592     0.387487300805    12.000000000000
         C            6.091961438086    -5.101911614451     0.384464783926    12.000000000000
         C            4.894972264885    -5.805002072022     0.383228588096    12.000000000000
         H           -7.089896567766    -5.575653493303     0.388630910957     1.007825032230
         H            7.031051029475    -5.651312187397     0.388044563690     1.007825032230
         C           -4.923549501924    -7.187474750742     0.381819546928    12.000000000000
         C           -2.485346267963    -7.196381728994     0.379309654492    12.000000000000
         C           -3.751690071504    -7.872600808701     0.379504333417    12.000000000000
         C           -0.037953136713    -7.208118525534     0.379525379640    12.000000000000
         C           -1.277960280127    -7.881558035731     0.377540686878    12.000000000000
         C            2.409440141001    -7.222675663067     0.380388580451    12.000000000000
         C            1.194745757428    -7.894839016627     0.378236289569    12.000000000000
         C            4.847616872773    -7.239915761644     0.382895395110    12.000000000000
         C            3.668467426150    -7.912441644008     0.380546960746    12.000000000000
         H           -5.869944530142    -7.722484249106     0.383363583794     1.007825032230
         H            5.788245445663    -7.784985840379     0.384022514592     1.007825032230
         H           -3.753531119175    -8.959725220301     0.377668418988     1.007825032230
         H           -1.284308585620    -8.969529043562     0.373113303020     1.007825032230
         H            1.189217394970    -8.982814271654     0.374143652879     1.007825032230
         H            3.658542435098    -8.999514285118     0.378892419324     1.007825032230

  Charge       = 0
  Multiplicity = 1
  Basis Set: JUN-CC-PVDZ
    Blend: JUN-CC-PVDZ
  Basis Set: (JUN-CC-PVDZ AUX)
    Blend: JUN-CC-PVDZ-JKFIT

    Orbital Energies [Eh]
    ---------------------

    Doubly Occupied:

       1A    -11.264014     2A    -11.263694     3A    -11.263660
       4A    -11.263342     5A    -11.263314     6A    -11.263273
       7A    -11.263115     8A    -11.263097     9A    -11.263086
      10A    -11.262914    11A    -11.262765    12A    -11.262758
      13A    -11.262280    14A    -11.262274    15A    -11.262207
      16A    -11.262199    17A    -11.262135    18A    -11.262111
      19A    -11.262074    20A    -11.262030    21A    -11.262018
      22A    -11.261888    23A    -11.261874    24A    -11.261746
      25A    -11.261735    26A    -11.261712    27A    -11.261710
      28A    -11.261666    29A    -11.261656    30A    -11.261577
      31A    -11.261552    32A    -11.261551    33A    -11.261526
      34A    -11.261523    35A    -11.261505    36A    -11.261482
      37A    -11.261324    38A    -11.261316    39A    -11.261302
      40A    -11.261294    41A    -11.261286    42A    -11.261282
      43A    -11.261272    44A    -11.261260    45A    -11.261257
      46A    -11.261239    47A    -11.261226    48A    -11.261219
      49A    -11.261068    50A    -11.261041    51A    -11.261038
      52A    -11.260967    53A    -11.260962    54A    -11.260888
      55A    -11.259916    56A    -11.259890    57A    -11.259883
      58A    -11.259862    59A    -11.259849    60A    -11.259832
      61A    -11.259287    62A    -11.259256    63A    -11.259253
      64A    -11.259203    65A    -11.259199    66A    -11.259169
      67A    -11.258917    68A    -11.258891    69A    -11.258882
      70A    -11.258862    71A    -11.258850    72A    -11.258837
      73A    -11.254521    74A    -11.254517    75A    -11.254506
      76A    -11.254501    77A    -11.254496    78A    -11.254493
      79A    -11.253656    80A    -11.253642    81A    -11.253640
      82A    -11.253628    83A    -11.253624    84A    -11.253615
      85A    -11.253571    86A    -11.253556    87A    -11.253554
      88A    -11.253543    89A    -11.253539    90A    -11.253530
      91A    -11.253049    92A    -11.253044    93A    -11.253033
      94A    -11.253029    95A    -11.253024    96A    -11.253021
      97A     -1.253917    98A     -1.238979    99A     -1.238951
     100A     -1.220437   101A     -1.220425   102A     -1.215414
     103A     -1.201012   104A     -1.195574   105A     -1.188125
     106A     -1.188101   107A     -1.173736   108A     -1.173734
     109A     -1.155600   110A     -1.155593   111A     -1.152688
     112A     -1.144695   113A     -1.144692   114A     -1.128536
     115A     -1.114684   116A     -1.113136   117A     -1.112464
     118A     -1.112431   119A     -1.111591   120A     -1.088399
     121A     -1.088385   122A     -1.076936   123A     -1.076933
     124A     -1.067585   125A     -1.067553   126A     -1.064940
     127A     -1.046771   128A     -1.046761   129A     -1.040449
     130A     -1.038710   131A     -1.038706   132A     -1.025209
     133A     -1.021361   134A     -1.021293   135A     -1.007149
     136A     -1.006773   137A     -1.003766   138A     -1.000461
     139A     -1.000407   140A     -0.991050   141A     -0.970959
     142A     -0.970907   143A     -0.955857   144A     -0.955799
     145A     -0.905553   146A     -0.905528   147A     -0.905512
     148A     -0.905481   149A     -0.904295   150A     -0.892328
     151A     -0.892268   152A     -0.890326   153A     -0.890273
     154A     -0.889416   155A     -0.872190   156A     -0.869033
     157A     -0.851507   158A     -0.847825   159A     -0.847813
     160A     -0.845561   161A     -0.842979   162A     -0.834528
     163A     -0.834520   164A     -0.828093   165A     -0.828085
     166A     -0.784520   167A     -0.784510   168A     -0.783627
     169A     -0.783610   170A     -0.782256   171A     -0.782231
     172A     -0.781994   173A     -0.766951   174A     -0.760754
     175A     -0.750540   176A     -0.733457   177A     -0.727043
     178A     -0.727011   179A     -0.725046   180A     -0.724507
     181A     -0.724478   182A     -0.718457   183A     -0.713736
     184A     -0.713729   185A     -0.699549   186A     -0.699525
     187A     -0.686089   188A     -0.685924   189A     -0.685915
     190A     -0.682134   191A     -0.682127   192A     -0.678748
     193A     -0.653596   194A     -0.650840   195A     -0.650807
     196A     -0.649773   197A     -0.649765   198A     -0.649531
     199A     -0.640903   200A     -0.640857   201A     -0.640049
     202A     -0.639125   203A     -0.635989   204A     -0.635956
     205A     -0.629102   206A     -0.617760   207A     -0.615272
     208A     -0.615247   209A     -0.608763   210A     -0.608757
     211A     -0.599152   212A     -0.599123   213A     -0.598708
     214A     -0.598558   215A     -0.598547   216A     -0.598004
     217A     -0.595031   218A     -0.595019   219A     -0.594686
     220A     -0.594190   221A     -0.591919   222A     -0.591915
     223A     -0.587350   224A     -0.577767   225A     -0.577752
     226A     -0.575688   227A     -0.575687   228A     -0.573341
     229A     -0.569553   230A     -0.568108   231A     -0.568081
     232A     -0.566714   233A     -0.566707   234A     -0.560883
     235A     -0.558687   236A     -0.558649   237A     -0.558395
     238A     -0.554329   239A     -0.550554   240A     -0.547443
     241A     -0.544266   242A     -0.534987   243A     -0.534978
     244A     -0.533501   245A     -0.533483   246A     -0.528042
     247A     -0.528025   248A     -0.527751   249A     -0.517130
     250A     -0.517101   251A     -0.515338   252A     -0.515335
     253A     -0.509603   254A     -0.509591   255A     -0.497984
     256A     -0.496415   257A     -0.496377   258A     -0.493777
     259A     -0.493756   260A     -0.489405   261A     -0.481413
     262A     -0.477395   263A     -0.477394   264A     -0.473954
     265A     -0.469391   266A     -0.466478   267A     -0.466477
     268A     -0.458786   269A     -0.446636   270A     -0.446582
     271A     -0.441014   272A     -0.440738   273A     -0.440719
     274A     -0.434662   275A     -0.433878   276A     -0.407350
     277A     -0.407326   278A     -0.386378   279A     -0.386337
     280A     -0.385702   281A     -0.385701   282A     -0.383714
     283A     -0.354295   284A     -0.354272   285A     -0.350630
     286A     -0.338081   287A     -0.335561   288A     -0.335480
     289A     -0.332680   290A     -0.332678   291A     -0.307040
     292A     -0.301920   293A     -0.301851   294A     -0.300809
     295A     -0.286139   296A     -0.256439   297A     -0.253460
     298A     -0.253408   299A     -0.204230   300A     -0.204138

  @DF-RHF Final Energy: -3650.34048551443357

   => Energetics <=

    Nuclear Repulsion Energy =          15611.4211649754306563
    One-Electron Energy =              -36072.1625281974120298
    Two-Electron Energy =               16810.4008777075505350
    Total Energy =                      -3650.3404855144326575
 Dipole X            :         -0.0006157            0.0002112           -0.0004045
 Dipole Y            :        123.2183971         -123.2131634            0.0052337
 Dipole Z            :       -432.2208677          432.2279010            0.0070333
 Magnitude           :                                                    0.0087763

    SAPT Results
  --------------------------------------------------------------------------------------------------------
    Electrostatics                -11.80602815 [mEh]      -7.40839451 [kcal/mol]     -30.99672265 [kJ/mol]
      Elst10,r                    -11.80602815 [mEh]      -7.40839451 [kcal/mol]     -30.99672265 [kJ/mol]

    Exchange                        1.62608452 [mEh]       1.02038344 [kcal/mol]       4.26928432 [kJ/mol]
      Exch10                        1.62608452 [mEh]       1.02038344 [kcal/mol]       4.26928432 [kJ/mol]
      Exch10(S^2)                   1.62518143 [mEh]       1.01981674 [kcal/mol]       4.26691325 [kJ/mol]

    Induction                     -10.88550192 [mEh]      -6.83075558 [kcal/mol]     -28.57988136 [kJ/mol]
      Ind20,r                     -10.43021478 [mEh]      -6.54505859 [kcal/mol]     -27.38452513 [kJ/mol]
      Exch-Ind20,r                  0.35924481 [mEh]       0.22542952 [kcal/mol]       0.94319711 [kJ/mol]
      delta HF,r (2)               -0.81453195 [mEh]      -0.51112652 [kcal/mol]      -2.13855334 [kJ/mol]

    Dispersion                    -10.20203622 [mEh]      -6.40187438 [kcal/mol]     -26.78544240 [kJ/mol]
      Disp20                      -10.37313345 [mEh]      -6.50923952 [kcal/mol]     -27.23465813 [kJ/mol]
      Exch-Disp20                   0.17109724 [mEh]       0.10736514 [kcal/mol]       0.44921573 [kJ/mol]
      Disp20 (SS)                  -5.18656673 [mEh]      -3.25461976 [kcal/mol]     -13.61732907 [kJ/mol]
      Disp20 (OS)                  -5.18656673 [mEh]      -3.25461976 [kcal/mol]     -13.61732907 [kJ/mol]
      Exch-Disp20 (SS)              0.11011692 [mEh]       0.06909941 [kcal/mol]       0.28911195 [kJ/mol]
      Exch-Disp20 (OS)              0.06098031 [mEh]       0.03826572 [kcal/mol]       0.16010379 [kJ/mol]

  Total HF                        -21.06544556 [mEh]     -13.21876666 [kcal/mol]     -55.30731969 [kJ/mol]
  Total SAPT0                     -31.26748178 [mEh]     -19.62064104 [kcal/mol]     -82.09276209 [kJ/mol]

  Special recipe for scaled SAPT0 (see Manual):
    Electrostatics sSAPT0         -11.80602815 [mEh]      -7.40839451 [kcal/mol]     -30.99672265 [kJ/mol]
    Exchange sSAPT0                 1.62608452 [mEh]       1.02038344 [kcal/mol]       4.26928432 [kJ/mol]
    Induction sSAPT0              -10.88490271 [mEh]      -6.83037957 [kcal/mol]     -28.57830812 [kJ/mol]
    Dispersion sSAPT0             -10.20175083 [mEh]      -6.40169530 [kcal/mol]     -26.78469312 [kJ/mol]
  Total sSAPT0                    -31.26659717 [mEh]     -19.62008594 [kcal/mol]     -82.09043957 [kJ/mol]
  --------------------------------------------------------------------------------------------------------

*** Psi4 exiting successfully. Buy a developer a beer!
