                               Psi4 1.9 release

  ==> Input File <==

--------------------------------------------------------------------------
memory 80 GB # how much memory is available ! Depends on the nodes/cores !

molecule dimer {
# monomer A
+1 1    # Charge and multiplicity
C  0.680067 -0.008042 -5.015929
C -0.680504 -0.006014 -5.015545
N -1.085635 -0.005016 -3.697221
C  0.000108 -0.001740 -2.915820
C -2.477365  0.044390 -3.229242
N  1.085222 -0.005016 -3.697221
H  1.385146 -0.015870 -5.833368
H -1.385302 -0.006204 -5.833214
H -0.000009  0.000007 -1.834731
C  2.478117 -0.021908 -3.232123
H  2.490592  0.005437 -2.141870
H  2.967028 -0.935354 -3.579299
H  3.001428  0.853575 -3.623595
H -2.857359  1.066461 -3.309201
H -3.082679 -0.625694 -3.842306
H -2.518128 -0.282594 -2.189294
--
# monomer B
0 1     # Charge and multiplicity
C   -3.66844126402057      7.80375217008252      0.00190004133558
C   -4.84759871934653      7.13124183134024     -0.00046653359696
C   -4.89495929917518      5.69633040353158     -0.00103944469517
C   -3.65374067877320      4.98073034095895      0.00662099703436
C   -2.40942512149445      7.11398103667468      0.00209438359570
C   -2.42547734410473      5.68112195090346     -0.00491050527438
C   -1.19474401643570      7.78614419430947      0.00356656413763
C   0.03795902893699      7.09942164575698      0.00139585983271
C   0.03033258741920      5.66948955970466     -0.00408752508301
C   -1.20098450790502      4.96927034791531      0.00488220885047
C   1.27795782581485      7.77285944319479      0.00277170839332
C   2.48535808472416      7.08769688523756      0.00049722048857
C   2.48612868491717      5.65477081024076     -0.00644052849921
C   1.25408291964399      4.95607811366431      0.00518741308898
C   3.75171459140595      7.76391215098033      0.00062407186893
C   4.92356605618520      7.07878077698995     -0.00143240883900
C   4.95560727132542      5.64344746336949     -0.00159282164606
C   3.70680153420475      4.94121020833308      0.00349873852374
H   -3.65852113775815      8.89082741913536      0.00358502958574
H   -1.18921332975660      8.87412108735996      0.00753844057883
H   1.28429423888630      8.86083343548850      0.00693053253426
H   3.75354208679975      8.85103527897216      0.00214659618464
H   5.86995870320703      7.61379483465560     -0.00235777588134
H   -5.78823170750226      7.67630221293400     -0.00202638095293
C   -6.09197395869619      4.99326001364347     -0.00291168518608
C   -6.12866148031747      3.58258016879823     -0.00171050815740
C   -3.66457974004527      3.56418217974434     -0.00463560277484
C   -4.89429820469869      2.86108077590057      0.00453338221034
C   -2.43733499489796      2.84761165708481      0.00719617576166
C   -1.20922785759670      3.54788693497833     -0.00648285103018
C   1.24714157216223      3.53468075142962     -0.00729145743546
C   0.01517603956900      2.83311183930540      0.00439272578912
C   2.46764517244071      2.82128997725533      0.00449278391269
C   3.70254947457969      3.52466015442405     -0.00899517692985
C   6.14498038638375      4.92757236613191     -0.00282626685777
C   6.16658835886151      3.51658447594213     -0.00065971342101
C   4.92460995845939      2.80840792535402      0.00587903281610
H   7.08990550964105      5.46688776622306     -0.00658814770723
H   -7.03104175110130      5.54268795285765     -0.00714490013730
C   -7.33969804112295      2.85841153457957     -0.00333767559888
C   -7.36488195805880      1.47032337158330     -0.00157213747140
C   -4.90350460894690      1.44442681216000     -0.00628840166334
C   -6.13225715261081      0.73993935705394      0.00600164231964
C   -3.67687480051673      0.72669714267312      0.00433931473643
C   -2.44565658606518      1.42964113326212     -0.00597039546461
C   -1.22360068130162      0.71532450163492      0.00545886906656
C   0.00763786931376      1.41738314923765      0.00392452278437
C   1.23121980774686      0.70211669058719     -0.01490206287210
C   2.46082110053113      1.40329203612573      0.00460244601878
C   3.68443025419614      0.68719842821222      0.00377365974158
C   4.91870890153864      1.39173456118907     -0.00862816189375
C   7.36980207796101      2.77948220318441     -0.00242013321349
C   7.38016266612146      1.39121750785509     -0.00087345036788
C   6.13979953912259      0.67411862320065      0.00545489144369
H   -8.27919079934664      3.40711804112415     -0.00763522772059
H   8.31511347147953      3.31811809662368     -0.00663070901292
C   -8.59175593758115      0.72483255304480     -0.00123170985383
C   -8.59902460370342     -0.63263980622873      0.00089141472904
C   -6.13981313911873     -0.67413663715361     -0.00609792660607
C   -7.38018411213749     -1.39126618958160      0.00131813493501
C   -4.91868448025621     -1.39175501803000      0.00624257154343
C   -3.68443829568458     -0.68723731573599     -0.00478966852105
C   -2.46081704024768     -1.40334517882457      0.00575341766833
C   -1.23116201232071     -0.70217386488055     -0.00636696112346
C   -0.00756962538737     -1.41741884941102      0.00108956317991
C   1.22364771588843     -0.71527537726392      0.01109518512883
C   2.44567064933149     -1.42964328900682     -0.00065482763106
C   3.67686670284649     -0.72670743155550     -0.00479541202602
C   6.13224884641929     -0.73997883984993     -0.00632338623858
C   4.90351914550401     -1.44445752054090      0.00751768830159
C   8.59901484869081      0.63260386666793     -0.00101133422380
C   8.59174548810050     -0.72485086719319      0.00072504603735
C   7.36486276438985     -1.47033266560598      0.00049486934466
H   -9.52830597181814      1.27684744919284     -0.00270163681798
H   9.54141097460619      1.17457248844457     -0.00206336648518
C   -7.36983790976868     -2.77954514593389      0.00312634335708
C   -4.92459910905015     -2.80843725734101     -0.00460528907921
C   -6.16662249566744     -3.51665219282533      0.00169655107992
C   -3.70251035970491     -3.52468154912026      0.00571878010666
C   -2.46764698511392     -2.82132596280400     -0.00632585824990
C   -0.01513347410770     -2.83314164539971     -0.00604426974092
C   -1.24712184122656     -3.53473217556300      0.00551968366725
C   1.20924506964357     -3.54791467864352      0.00805871345849
C   2.43733602215464     -2.84764173817541     -0.00608104485234
C   4.89430234377080     -2.86112296828604     -0.00526030478103
C   3.66461525504104     -3.56421984553201      0.00761911515957
C   6.12863901474565     -3.58258405771778      0.00096495711699
C   7.33967266469532     -2.85841330737039      0.00248018319869
H   -9.54144911125902     -1.17456346666430      0.00226083090216
H   9.52826186807155     -1.27691907390448      0.00197485379837
H   -8.31516504384864     -3.31814985321231      0.00729857188773
H   8.27915514249207     -3.40714078989363      0.00681973918158
C   -6.14499418870218     -4.92764727278338      0.00302254913999
C   -3.70678334799751     -4.94126171411716     -0.00679841894792
C   -4.95559005800169     -5.64349397349412      0.00116871569699
C   -2.48612132622665     -5.65478557440947      0.00614125209662
C   -1.25405833548005     -4.95612205000132     -0.00503435388927
C   1.20101257386816     -4.96928038819302     -0.00385322963129
C   -0.03033667441341     -5.66952030313900      0.00398997003238
C   3.65375010132847     -4.98074377541453     -0.00309522988330
C   2.42549269587528     -5.68117463552727      0.00628170066869
C   6.09196561781097     -4.99325796338655      0.00325918379042
C   4.89497644461045     -5.69634842095790      0.00202298796027
H   -7.08989238804069     -5.46699984223871      0.00742531082125
H   7.03105520920009     -5.54265853633254      0.00683896355417
C   -4.92354532219813     -7.07882109967734      0.00061394679214
C   -2.48534208823777     -7.08772807792913     -0.00189594564379
C   -3.75168589177895     -7.76394715763627     -0.00170126671874
C   -0.03794895698805     -7.09946487446944     -0.00168022049625
C   -1.27795610040136     -7.77290438466689     -0.00366491325785
C   2.40944432072629     -7.11402201200282     -0.00081701968533
C   1.19474993715296     -7.78618536556242     -0.00296931056689
C   4.84762105249800     -7.13126211057943      0.00168979497423
C   3.66847160587561     -7.80378799294376     -0.00065863938960
H   -5.86994035041618     -7.61383059804164      0.00215798365757
H   5.78824962538815     -7.67633218931421      0.00281691445618
H   -3.75352693944918     -8.85107156923607     -0.00353718114765
H   -1.28430440589466     -8.86087539249706     -0.00809229711623
H   1.18922157469537     -8.87416062058945     -0.00706194725726
H   3.65854661482387     -8.89086063405326     -0.00231318081200

    units angstrom      # Angstroms are the default
    no_reorient         # Geometry fixed, default
    symmetry c1         # C1 symmetry, default
}

set {
    scf_type DF         # Density fitting, faster than exact integrals
    freeze_core True    # Freeze core electrons
    basis jun-cc-pVDZ   # Jun-cc-pVDZ basis set, recommended for sSAPT0 in https://doi.org/10.1063/1.4867135
}

energy('ssapt0')        # Compute sSAPT0 energy, includes also SAPT0
--------------------------------------------------------------------------

  //              Dimer HF             //
    Molecular point group: c1
  Charge       = 1
  Multiplicity = 1
  Basis Set: JUN-CC-PVDZ
    Blend: JUN-CC-PVDZ
  Basis Set: (JUN-CC-PVDZ AUX)
    Blend: JUN-CC-PVDZ-JKFIT
  @DF-RHF Final Energy: -3953.64137879718601
    Total Energy =                      -3953.6413787971869169
 Dipole X            :         -0.0008403            0.0004804           -0.0003599
 Dipole Y            :         -0.0505176            0.0561130            0.0055954
 Dipole Z            :         17.0195849          -21.1919960           -4.1724111
 Magnitude           :                                                    4.1724149
  //            Monomer A HF           //
    Molecular point group: c1
  Multiplicity = 1
  Basis Set: JUN-CC-PVDZ
    Blend: JUN-CC-PVDZ
  Basis Set: (JUN-CC-PVDZ AUX)
    Blend: JUN-CC-PVDZ-JKFIT
  @DF-RHF Final Energy:  -303.29876993609037
    Total Energy =                       -303.2987699360903662
  //            Monomer B HF           //
    Molecular point group: c1

    Geometry (in Angstrom), charge = 0, multiplicity = 1:

       Center              X                  Y                   Z               Mass
    ------------   -----------------  -----------------  -----------------  -----------------
      Gh(C)           0.680062820275    -0.008027535675    -4.726214130564    12.000000000000
      Gh(C)          -0.680508179725    -0.005999535675    -4.725830130564    12.000000000000
      Gh(N)          -1.085639179725    -0.005001535675    -3.407506130564    14.003074004430
      Gh(C)           0.000103820275    -0.001725535675    -2.626105130564    12.000000000000
      Gh(C)          -2.477369179725     0.044404464325    -2.939527130564    12.000000000000
      Gh(N)           1.085217820275    -0.005001535675    -3.407506130564    14.003074004430
      Gh(H)           1.385141820275    -0.015855535675    -5.543653130564     1.007825032230
      Gh(H)          -1.385306179725    -0.006189535675    -5.543499130564     1.007825032230
      Gh(H)          -0.000013179725     0.000021464325    -1.545016130564     1.007825032230
      Gh(C)           2.478112820275    -0.021893535675    -2.942408130564    12.000000000000
      Gh(H)           2.490587820275     0.005451464325    -1.852155130564     1.007825032230
      Gh(H)           2.967023820275    -0.935339535675    -3.289584130564     1.007825032230
      Gh(H)           3.001423820275     0.853589464325    -3.333880130564     1.007825032230
      Gh(H)          -2.857363179725     1.066475464325    -3.019486130564     1.007825032230
      Gh(H)          -3.082683179725    -0.625679535675    -3.552591130564     1.007825032230
      Gh(H)          -2.518132179725    -0.282579535675    -1.899579130564     1.007825032230
         C           -3.668445443746     7.803766634408     0.291614910771    12.000000000000
         C           -4.847602899072     7.131256295665     0.289248335839    12.000000000000
         C           -4.894963478901     5.696344867857     0.288675424740    12.000000000000
         C           -3.653744858499     4.980744805284     0.296335866470    12.000000000000
         C           -2.409429301220     7.113995501000     0.291809253031    12.000000000000
         C           -2.425481523830     5.681136415228     0.284804364161    12.000000000000
         C           -1.194748196161     7.786158658634     0.293281433573    12.000000000000
         C            0.037954849212     7.099436110082     0.291110729268    12.000000000000
         C            0.030328407694     5.669504024030     0.285627344353    12.000000000000
         C           -1.200988687630     4.969284812240     0.294597078286    12.000000000000
         C            1.277953646089     7.772873907520     0.292486577829    12.000000000000
         C            2.485353904999     7.087711349563     0.290212089924    12.000000000000
         C            2.486124505192     5.654785274566     0.283274340936    12.000000000000
         C            1.254078739919     4.956092577989     0.294902282524    12.000000000000
         C            3.751710411681     7.763926615305     0.290338941304    12.000000000000
         C            4.923561876460     7.078795241315     0.288282460597    12.000000000000
         C            4.955603091600     5.643461927694     0.288122047789    12.000000000000
         C            3.706797354479     4.941224672658     0.293213607959    12.000000000000
         H           -3.658525317484     8.890841883460     0.293299899021     1.007825032230
         H           -1.189217509482     8.874135551685     0.297253310014     1.007825032230
         H            1.284290059161     8.860847899813     0.296645401970     1.007825032230
         H            3.753537907074     8.851049743297     0.291861465620     1.007825032230
         H            5.869954523482     7.613809298981     0.287357093554     1.007825032230
         H           -5.788235887228     7.676316677259     0.287688488483     1.007825032230
         C           -6.091978138422     4.993274477968     0.286803184249    12.000000000000
         C           -6.128665660043     3.582594633123     0.288004361278    12.000000000000
         C           -3.664583919771     3.564196644069     0.285079266661    12.000000000000
         C           -4.894302384424     2.861095240226     0.294248251646    12.000000000000
         C           -2.437339174623     2.847626121410     0.296911045197    12.000000000000
         C           -1.209232037322     3.547901399303     0.283232018405    12.000000000000
         C            1.247137392437     3.534695215755     0.282423412000    12.000000000000
         C            0.015171859844     2.833126303630     0.294107595225    12.000000000000
         C            2.467640992715     2.821304441580     0.294207653348    12.000000000000
         C            3.702545294854     3.524674618749     0.280719692506    12.000000000000
         C            6.144976206658     4.927586830457     0.286888602578    12.000000000000
         C            6.166584179136     3.516598940267     0.289055156015    12.000000000000
         C            4.924605778734     2.808422389679     0.295593902252    12.000000000000
         H            7.089901329916     5.466902230548     0.283126721728     1.007825032230
         H           -7.031045930827     5.542702417183     0.282569969298     1.007825032230
         C           -7.339702220848     2.858425998905     0.286377193837    12.000000000000
         C           -7.364886137784     1.470337835908     0.288142731964    12.000000000000
         C           -4.903508788672     1.444441276485     0.283426467772    12.000000000000
         C           -6.132261332336     0.739953821379     0.295716511755    12.000000000000
         C           -3.676878980242     0.726711606998     0.294054184172    12.000000000000
         C           -2.445660765791     1.429655597587     0.283744473971    12.000000000000
         C           -1.223604861027     0.715338965960     0.295173738502    12.000000000000
         C            0.007633689588     1.417397613563     0.293639392220    12.000000000000
         C            1.231215628021     0.702131154912     0.274812806563    12.000000000000
         C            2.460816920806     1.403306500451     0.294317315454    12.000000000000
         C            3.684426074471     0.687212892537     0.293488529177    12.000000000000
         C            4.918704721813     1.391749025514     0.281086707542    12.000000000000
         C            7.369797898236     2.779496667509     0.287294736222    12.000000000000
         C            7.380158486396     1.391231972180     0.288841419068    12.000000000000
         C            6.139795359397     0.674133087526     0.295169760879    12.000000000000
         H           -8.279194979072     3.407132505449     0.282079641715     1.007825032230
         H            8.315109291754     3.318132560949     0.283084160423     1.007825032230
         C           -8.591760117307     0.724847017370     0.288483159582    12.000000000000
         C           -8.599028783429    -0.632625341904     0.290606284165    12.000000000000
         C           -6.139817318844    -0.674122172829     0.283616942829    12.000000000000
         C           -7.380188291863    -1.391251725257     0.291033004371    12.000000000000
         C           -4.918688659982    -1.391740553705     0.295957440979    12.000000000000
         C           -3.684442475410    -0.687222851411     0.284925200914    12.000000000000
         C           -2.460821219973    -1.403330714500     0.295468287104    12.000000000000
         C           -1.231166192046    -0.702159400556     0.283347908312    12.000000000000
         C           -0.007573805113    -1.417404385086     0.290804432615    12.000000000000
         C            1.223643536163    -0.715260912939     0.300810054564    12.000000000000
         C            2.445666469606    -1.429628824682     0.289060041804    12.000000000000
         C            3.676862523121    -0.726692967231     0.284919457409    12.000000000000
         C            6.132244666694    -0.739964375525     0.283391483197    12.000000000000
         C            4.903514965779    -1.444443056216     0.297232557737    12.000000000000
         C            8.599010668965     0.632618330993     0.288703535212    12.000000000000
         C            8.591741308375    -0.724836402868     0.290439915473    12.000000000000
         C            7.364858584664    -1.470318201281     0.290209738780    12.000000000000
         H           -9.528310151544     1.276861913518     0.287013232618     1.007825032230
         H            9.541406794881     1.174586952770     0.287651502950     1.007825032230
         C           -7.369842089494    -2.779530681609     0.292841212793    12.000000000000
         C           -4.924603288776    -2.808422793016     0.285109580356    12.000000000000
         C           -6.166626675393    -3.516637728500     0.291411420515    12.000000000000
         C           -3.702514539430    -3.524667084795     0.295433649542    12.000000000000
         C           -2.467651164839    -2.821311498479     0.283389011186    12.000000000000
         C           -0.015137653833    -2.833127181075     0.283670599695    12.000000000000
         C           -1.247126020952    -3.534717711238     0.295234553103    12.000000000000
         C            1.209240889918    -3.547900214319     0.297773582894    12.000000000000
         C            2.437331842429    -2.847627273850     0.283633824583    12.000000000000
         C            4.894298164045    -2.861108503961     0.284454564654    12.000000000000
         C            3.664611075316    -3.564205381207     0.297333984595    12.000000000000
         C            6.128634835020    -3.582569593393     0.290679826553    12.000000000000
         C            7.339668484970    -2.858398843045     0.292195052634    12.000000000000
         H           -9.541453290984    -1.174549002339     0.291975700338     1.007825032230
         H            9.528257688346    -1.276904609579     0.291689723234     1.007825032230
         H           -8.315169223574    -3.318135388887     0.297013441323     1.007825032230
         H            8.279150962767    -3.407126325569     0.296534608617     1.007825032230
         C           -6.144998368428    -4.927632808458     0.292737418576    12.000000000000
         C           -3.706787527723    -4.941247249792     0.282916450488    12.000000000000
         C           -4.955594237727    -5.643479509169     0.290883585133    12.000000000000
         C           -2.486125505952    -5.654771110084     0.295856121532    12.000000000000
         C           -1.254062515205    -4.956107585676     0.284680515546    12.000000000000
         C            1.201008394143    -4.969265923868     0.285861639804    12.000000000000
         C           -0.030340854139    -5.669505838814     0.293704839468    12.000000000000
         C            3.653745921603    -4.980729311090     0.286619639552    12.000000000000
         C            2.425488516150    -5.681160171202     0.295996570104    12.000000000000
         C            6.091961438086    -4.993243499062     0.292974053226    12.000000000000
         C            4.894972264885    -5.696333956633     0.291737857396    12.000000000000
         H           -7.089896567766    -5.466985377914     0.297140180257     1.007825032230
         H            7.031051029475    -5.542644072008     0.296553832990     1.007825032230
         C           -4.923549501924    -7.078806635352     0.290328816228    12.000000000000
         C           -2.485346267963    -7.087713613604     0.287818923792    12.000000000000
         C           -3.751690071504    -7.763932693311     0.288013602717    12.000000000000
         C           -0.037953136713    -7.099450410144     0.288034648939    12.000000000000
         C           -1.277960280127    -7.772889920342     0.286049956178    12.000000000000
         C            2.409440141001    -7.114007547678     0.288897849750    12.000000000000
         C            1.194745757428    -7.786170901237     0.286745558869    12.000000000000
         C            4.847616872773    -7.131247646254     0.291404664410    12.000000000000
         C            3.668467426150    -7.803773528619     0.289056230046    12.000000000000
         H           -5.869944530142    -7.613816133717     0.291872853093     1.007825032230
         H            5.788245445663    -7.676317724989     0.292531783892     1.007825032230
         H           -3.753531119175    -8.851057104911     0.286177688288     1.007825032230
         H           -1.284308585620    -8.860860928172     0.281622572319     1.007825032230
         H            1.189217394970    -8.874146156264     0.282652922178     1.007825032230
         H            3.658542435098    -8.890846169728     0.287401688624     1.007825032230

  Charge       = 0
  Multiplicity = 1
  Basis Set: JUN-CC-PVDZ
    Blend: JUN-CC-PVDZ
  Basis Set: (JUN-CC-PVDZ AUX)
    Blend: JUN-CC-PVDZ-JKFIT

    Orbital Energies [Eh]
    ---------------------

    Doubly Occupied:

       1A    -11.264043     2A    -11.263730     3A    -11.263643
       4A    -11.263305     5A    -11.263295     6A    -11.263215
       7A    -11.263139     8A    -11.263092     9A    -11.263042
      10A    -11.262855    11A    -11.262738    12A    -11.262712
      13A    -11.262239    14A    -11.262232    15A    -11.262221
      16A    -11.262155    17A    -11.262076    18A    -11.262060
      19A    -11.262022    20A    -11.261975    21A    -11.261965
      22A    -11.261872    23A    -11.261846    24A    -11.261701
      25A    -11.261699    26A    -11.261669    27A    -11.261661
      28A    -11.261624    29A    -11.261617    30A    -11.261526
      31A    -11.261509    32A    -11.261503    33A    -11.261500
      34A    -11.261482    35A    -11.261463    36A    -11.261449
      37A    -11.261280    38A    -11.261270    39A    -11.261263
      40A    -11.261259    41A    -11.261243    42A    -11.261235
      43A    -11.261229    44A    -11.261215    45A    -11.261207
      46A    -11.261188    47A    -11.261178    48A    -11.261171
      49A    -11.261031    50A    -11.261021    51A    -11.260965
      52A    -11.260932    53A    -11.260882    54A    -11.260844
      55A    -11.259854    56A    -11.259837    57A    -11.259833
      58A    -11.259809    59A    -11.259800    60A    -11.259785
      61A    -11.259223    62A    -11.259199    63A    -11.259187
      64A    -11.259145    65A    -11.259130    66A    -11.259105
      67A    -11.258855    68A    -11.258835    69A    -11.258832
      70A    -11.258809    71A    -11.258798    72A    -11.258787
      73A    -11.254489    74A    -11.254481    75A    -11.254479
      76A    -11.254471    77A    -11.254457    78A    -11.254449
      79A    -11.253609    80A    -11.253597    81A    -11.253588
      82A    -11.253577    83A    -11.253574    84A    -11.253572
      85A    -11.253524    86A    -11.253513    87A    -11.253500
      88A    -11.253489    89A    -11.253488    90A    -11.253482
      91A    -11.253016    92A    -11.253009    93A    -11.253006
      94A    -11.252999    95A    -11.252986    96A    -11.252977
      97A     -1.253810    98A     -1.238898    99A     -1.238851
     100A     -1.220366   101A     -1.220344   102A     -1.215321
     103A     -1.200946   104A     -1.195508   105A     -1.188033
     106A     -1.188003   107A     -1.173674   108A     -1.173673
     109A     -1.155509   110A     -1.155504   111A     -1.152598
     112A     -1.144637   113A     -1.144636   114A     -1.128454
     115A     -1.114595   116A     -1.113080   117A     -1.112377
     118A     -1.112337   119A     -1.111537   120A     -1.088321
     121A     -1.088297   122A     -1.076880   123A     -1.076879
     124A     -1.067510   125A     -1.067463   126A     -1.064853
     127A     -1.046699   128A     -1.046686   129A     -1.040371
     130A     -1.038658   131A     -1.038648   132A     -1.025120
     133A     -1.021259   134A     -1.021187   135A     -1.007086
     136A     -1.006693   137A     -1.003698   138A     -1.000378
     139A     -1.000312   140A     -0.990999   141A     -0.970882
     142A     -0.970825   143A     -0.955797   144A     -0.955734
     145A     -0.905474   146A     -0.905444   147A     -0.905429
     148A     -0.905418   149A     -0.904189   150A     -0.892221
     151A     -0.892169   152A     -0.890234   153A     -0.890185
     154A     -0.889333   155A     -0.872132   156A     -0.868989
     157A     -0.851441   158A     -0.847736   159A     -0.847727
     160A     -0.845471   161A     -0.842892   162A     -0.834452
     163A     -0.834447   164A     -0.828040   165A     -0.828028
     166A     -0.784448   167A     -0.784440   168A     -0.783545
     169A     -0.783535   170A     -0.782170   171A     -0.782153
     172A     -0.781910   173A     -0.766882   174A     -0.760662
     175A     -0.750453   176A     -0.733399   177A     -0.726980
     178A     -0.726925   179A     -0.724966   180A     -0.724443
     181A     -0.724401   182A     -0.718360   183A     -0.713648
     184A     -0.713640   185A     -0.699480   186A     -0.699450
     187A     -0.685997   188A     -0.685864   189A     -0.685845
     190A     -0.682069   191A     -0.682060   192A     -0.678670
     193A     -0.653525   194A     -0.650768   195A     -0.650731
     196A     -0.649682   197A     -0.649672   198A     -0.649470
     199A     -0.640814   200A     -0.640757   201A     -0.639987
     202A     -0.639067   203A     -0.635907   204A     -0.635871
     205A     -0.629027   206A     -0.617699   207A     -0.615215
     208A     -0.615184   209A     -0.608697   210A     -0.608690
     211A     -0.599157   212A     -0.599062   213A     -0.598636
     214A     -0.598475   215A     -0.598449   216A     -0.597911
     217A     -0.594971   218A     -0.594957   219A     -0.594615
     220A     -0.594089   221A     -0.591840   222A     -0.591835
     223A     -0.587249   224A     -0.577725   225A     -0.577699
     226A     -0.575672   227A     -0.575630   228A     -0.573275
     229A     -0.569534   230A     -0.568019   231A     -0.567993
     232A     -0.566638   233A     -0.566632   234A     -0.560833
     235A     -0.558612   236A     -0.558553   237A     -0.558344
     238A     -0.554255   239A     -0.550533   240A     -0.547396
     241A     -0.544211   242A     -0.534973   243A     -0.534929
     244A     -0.533435   245A     -0.533419   246A     -0.527983
     247A     -0.527959   248A     -0.527650   249A     -0.517038
     250A     -0.517018   251A     -0.515293   252A     -0.515287
     253A     -0.509542   254A     -0.509531   255A     -0.497918
     256A     -0.496352   257A     -0.496294   258A     -0.493751
     259A     -0.493699   260A     -0.489381   261A     -0.481350
     262A     -0.477351   263A     -0.477349   264A     -0.473886
     265A     -0.469307   266A     -0.466404   267A     -0.466397
     268A     -0.458752   269A     -0.446529   270A     -0.446481
     271A     -0.440962   272A     -0.440715   273A     -0.440661
     274A     -0.434619   275A     -0.433842   276A     -0.407301
     277A     -0.407280   278A     -0.386324   279A     -0.386266
     280A     -0.385668   281A     -0.385658   282A     -0.383668
     283A     -0.354243   284A     -0.354218   285A     -0.350581
     286A     -0.338003   287A     -0.335475   288A     -0.335463
     289A     -0.332649   290A     -0.332630   291A     -0.306961
     292A     -0.301853   293A     -0.301781   294A     -0.300781
     295A     -0.286083   296A     -0.256420   297A     -0.253380
     298A     -0.253342   299A     -0.204169   300A     -0.204093

  @DF-RHF Final Energy: -3650.34196449681349

   => Energetics <=

    Nuclear Repulsion Energy =          15611.4211649754306563
    One-Electron Energy =              -36072.2018114889360731
    Two-Electron Energy =               16810.4386820166946563
    Total Energy =                      -3650.3419644968125795
 Dipole X            :         -0.0008383            0.0002112           -0.0006272
 Dipole Y            :          0.0024303           -0.0013774            0.0010529
 Dipole Z            :       -328.4892502          328.4924465            0.0031964
 Magnitude           :                                                    0.0034233

    SAPT Results
  --------------------------------------------------------------------------------------------------------
    Electrostatics                -25.95625919 [mEh]     -16.28779854 [kcal/mol]     -68.14814910 [kJ/mol]
      Elst10,r                    -25.95625919 [mEh]     -16.28779854 [kcal/mol]     -68.14814910 [kJ/mol]

    Exchange                       55.54423433 [mEh]      34.85453326 [kcal/mol]     145.83136715 [kJ/mol]
      Exch10                       55.54423433 [mEh]      34.85453326 [kcal/mol]     145.83136715 [kJ/mol]
      Exch10(S^2)                  54.71855963 [mEh]      34.33641456 [kcal/mol]     143.66355851 [kJ/mol]

    Induction                     -30.23233943 [mEh]     -18.97107941 [kcal/mol]     -79.37499624 [kJ/mol]
      Ind20,r                     -37.47011195 [mEh]     -23.51285023 [kcal/mol]     -98.37776537 [kJ/mol]
      Exch-Ind20,r                 15.05147459 [mEh]       9.44494290 [kcal/mol]      39.51764110 [kJ/mol]
      delta HF,r (2)               -7.81370208 [mEh]      -4.90317208 [kcal/mol]     -20.51487197 [kJ/mol]

    Dispersion                    -41.74592773 [mEh]     -26.19596515 [kcal/mol]    -109.60391817 [kJ/mol]
      Disp20                      -46.10733097 [mEh]     -28.93278699 [kcal/mol]    -121.05478077 [kJ/mol]
      Exch-Disp20                   4.36140323 [mEh]       2.73682185 [kcal/mol]      11.45086261 [kJ/mol]
      Disp20 (SS)                 -23.05366548 [mEh]     -14.46639350 [kcal/mol]     -60.52739039 [kJ/mol]
      Disp20 (OS)                 -23.05366548 [mEh]     -14.46639350 [kcal/mol]     -60.52739039 [kJ/mol]
      Exch-Disp20 (SS)              2.58660073 [mEh]       1.62311647 [kcal/mol]       6.79111929 [kJ/mol]
      Exch-Disp20 (OS)              1.77480250 [mEh]       1.11370538 [kcal/mol]       4.65974332 [kJ/mol]

  Total HF                         -0.64436428 [mEh]      -0.40434469 [kcal/mol]      -1.69177819 [kJ/mol]
  Total SAPT0                     -42.39029202 [mEh]     -26.60030984 [kcal/mol]    -111.29569636 [kJ/mol]

  Special recipe for scaled SAPT0 (see Manual):
    Electrostatics sSAPT0         -25.95625919 [mEh]     -16.28779854 [kcal/mol]     -68.14814910 [kJ/mol]
    Exchange sSAPT0                55.54423433 [mEh]      34.85453326 [kcal/mol]     145.83136715 [kJ/mol]
    Induction sSAPT0              -29.54064954 [mEh]     -18.53703745 [kcal/mol]     -77.55896469 [kJ/mol]
    Dispersion sSAPT0             -41.54549963 [mEh]     -26.07019461 [kcal/mol]    -109.07769425 [kJ/mol]
  Total sSAPT0                    -41.49817403 [mEh]     -26.04049735 [kcal/mol]    -108.95344090 [kJ/mol]
  --------------------------------------------------------------------------------------------------------

*** Psi4 exiting successfully. Buy a developer a beer!
