                               Psi4 1.9 release

  ==> Input File <==

--------------------------------------------------------------------------
memory 32 GB # how much memory is available ! Depends on the nodes/cores !

molecule dimer {
# monomer A
-1 1    # Charge and multiplicity
B -0.000046  0.000337 6.999994
F -1.153597  0.000048 7.815641
F  1.153661 -0.000581 7.815641
F -0.000019 -1.153637 6.184360
F -0.000019  1.153978 6.184360
--
# monomer B
0 1     # Charge and multiplicity
C   1.22531237526482      0.70753866091955      0.00613762728373
C   1.22532433589282     -0.70753852257020     -0.00619318228664
C   -0.00000567409046      1.41496628609039     -0.00672680580738
C   2.45644923379077      1.41832825917820      0.00902448468363
C   0.00001130712078     -1.41497612663474      0.00347275151708
C   -1.22530046906674      0.70754574598412      0.00838914760619
C   2.45643823516184     -1.41832293188077     -0.00843833914343
C   -0.00000085313587      2.83680140328112     -0.00913035594137
C   3.68182717731192      0.70931832800114     -0.00808954934571
C   2.45512052870677      2.83422403348893     -0.00819210630633
C   3.68182158506039     -0.70933346742900      0.00798293467272
C   -1.22531311884624     -0.70752714354401     -0.00512042085974
C   1.22670006104402      3.54346985599427      0.00816696660346
C   0.00000526469929     -2.83678176723568      0.00832091913869
C   -2.45643555300670      1.41831729028492      0.00842454345199
C   2.45512389762097     -2.83422965658853      0.00783102630520
C   -1.22671388474763      3.54346943575023      0.00827029982280
C   4.91451777504333      1.42717324448953     -0.00160886631602
C   3.69315067131765      3.54279566454522     -0.00155906667985
C   -2.45643712022637     -1.41831290883911     -0.00846337726810
C   1.22670532178455     -3.54347386990643     -0.00780316414624
C   -2.45512491866593      2.83421703463423     -0.00818572995999
C   4.91452486062398     -1.42718653794377      0.00136387641845
C   1.22142509354026      4.97013443726031      0.00150231067809
C   4.89300870916237      2.82518837202648     -0.00039219795739
C   -1.22669652864725     -3.54347062507680     -0.00753595973677
C   -3.68181849668397      0.70932533873199     -0.00807686886569
C   3.69314758099218     -3.54280096939050      0.00148176697923
C   -1.22143177215231      4.97012866986289      0.00168580605083
C   6.13477145276790      0.68054831910577     -0.00083909176631
C   3.65678936045204      4.97295361556775     -0.00065042889723
C   -2.45512642789169     -2.83421472106065      0.00758666850712
C   -3.68181869921921     -0.70932533146830      0.00810055625144
C   4.89301309775526     -2.82519973363176      0.00021895393805
C   -0.00000059327114      5.65044773803267      0.00045449734393
C   6.13477559217374     -0.68055448207492      0.00042622874941
C   2.47813196269732      5.65357712333155      0.00063835075260
C   1.22142288457925     -4.97012668293268     -0.00129718634452
C   -3.69316190412301      3.54279732619245     -0.00139355922051
C   -1.22142804110313     -4.97011793159564     -0.00140994817719
C   -4.91452132810043      1.42717581899491     -0.00153192130862
C   3.65678749952045     -4.97295485423912      0.00080007163680
C   -2.47813805026426      5.65357479452875      0.00092287576113
C   -3.69314125872231     -3.54278984697859      0.00136564082345
C   -4.91451200321153     -1.42718062802730      0.00139857359209
C   -0.00000552908399     -5.65043791501335      0.00005899322272
C   -4.89302000425900      2.82518897091939     -0.00040227981744
C   2.47812647313991     -5.65357317188818     -0.00029052915548
C   -3.65679823041642      4.97295655404175     -0.00047374852278
C   -4.89299899901461     -2.82519139505969      0.00006491824035
C   -2.47812801824129     -5.65356579800621     -0.00056571680280
C   -6.13477002348955      0.68054913825639     -0.00086464346868
C   -3.65678835334731     -4.97294365097028      0.00058578382008
C   -6.13476456307132     -0.68055354348201      0.00040575295444
H   5.83528897565761      3.36927626695423      0.00396712770529
H   7.07385965258860      1.22821762089947     -0.00037744837300
H   4.60066374401555      5.51238117445323     -0.00014522814529
H   5.83528386714679     -3.36930568472863     -0.00423551337640
H   -0.00001167146422      6.73853104613662     -0.00389474766392
H   7.07386165167227     -1.22822657074368     -0.00008250934481
H   2.47331421164041      6.74068466339473      0.00017162982210
H   4.60066897122302     -5.51237575717576      0.00039007446835
H   -2.47331820069565      6.74068209160650      0.00047297644710
H   -0.00000978838621     -6.73852780445195      0.00458867820736
H   -5.83530143450167      3.36927132229595      0.00410314985360
H   2.47330840367253     -6.74068500242887      0.00027980126949
H   -4.60067436136587      5.51237839860371      0.00002010017831
H   -5.83527902699321     -3.36928859177951     -0.00451481925734
H   -2.47329986759855     -6.74067870613986     -0.00016951527498
H   -7.07385728692578      1.22822084484047     -0.00046143985387
H   -4.60067330624313     -5.51236229778631      0.00021776644566
H   -7.07385645456741     -1.22822025997701     -0.00017736581114

    units angstrom      # Angstroms are the default
    no_reorient         # Geometry fixed, default
    symmetry c1         # C1 symmetry, default
}

set {
    scf_type DF         # Density fitting, faster than exact integrals
    freeze_core True    # Freeze core electrons
    basis jun-cc-pVDZ   # Jun-cc-pVDZ basis set, recommended for sSAPT0 in https://doi.org/10.1063/1.4867135
}

energy('ssapt0')        # Compute sSAPT0 energy, includes also SAPT0
--------------------------------------------------------------------------

  //              Dimer HF             //
    Molecular point group: c1
  Charge       = -1
  Multiplicity = 1
  Basis Set: JUN-CC-PVDZ
    Blend: JUN-CC-PVDZ
  Basis Set: (JUN-CC-PVDZ AUX)
    Blend: JUN-CC-PVDZ-JKFIT
  @DF-RHF Final Energy: -2478.65799295243232
    Total Energy =                      -2478.6579929524323234
 Dipole X            :         -0.0001831           -0.0000160           -0.0001992
 Dipole Y            :          0.0012664           -0.0001716            0.0010947
 Dipole Z            :         31.9762517          -42.9121602          -10.9359085
 Magnitude           :                                                   10.9359086
  //            Monomer A HF           //
    Molecular point group: c1
  Multiplicity = 1
  Basis Set: JUN-CC-PVDZ
    Blend: JUN-CC-PVDZ
  Basis Set: (JUN-CC-PVDZ AUX)
    Blend: JUN-CC-PVDZ-JKFIT
  @DF-RHF Final Energy:  -422.77145996589911
    Total Energy =                       -422.7714599658991119
  //            Monomer B HF           //
    Molecular point group: c1

    Geometry (in Angstrom), charge = 0, multiplicity = 1:

       Center              X                  Y                   Z               Mass
    ------------   -----------------  -----------------  -----------------  -----------------
      Gh(B)          -0.000046449334     0.000336519434     6.191358591038    11.009305360000
      Gh(F)          -1.153597449334     0.000047519434     7.007005591038    18.998403162730
      Gh(F)           1.153660550666    -0.000581480566     7.007005591038    18.998403162730
      Gh(F)          -0.000019449334    -1.153637480566     5.375724591038    18.998403162730
      Gh(F)          -0.000019449334     1.153977519434     5.375724591038    18.998403162730
         C            1.225311925931     0.707538180353    -0.802497781679    12.000000000000
         C            1.225323886559    -0.707539003137    -0.814828591249    12.000000000000
         C           -0.000006123424     1.414965805524    -0.815362214770    12.000000000000
         C            2.456448784457     1.418327778612    -0.799610924279    12.000000000000
         C            0.000010857787    -1.414976607201    -0.805162657445    12.000000000000
         C           -1.225300918401     0.707545265418    -0.800246261356    12.000000000000
         C            2.456437785828    -1.418323412447    -0.817073748106    12.000000000000
         C           -0.000001302470     2.836800922715    -0.817765764904    12.000000000000
         C            3.681826727978     0.709317847435    -0.816724958308    12.000000000000
         C            2.455120079373     2.834223552923    -0.816827515269    12.000000000000
         C            3.681821135726    -0.709333947995    -0.800652474290    12.000000000000
         C           -1.225313568180    -0.707527624110    -0.813755829822    12.000000000000
         C            1.226699611710     3.543469375428    -0.800468442359    12.000000000000
         C            0.000004815365    -2.836782247802    -0.800314489824    12.000000000000
         C           -2.456436002341     1.418316809719    -0.800210865510    12.000000000000
         C            2.455123448287    -2.834230137155    -0.800804382657    12.000000000000
         C           -1.226714334082     3.543468955184    -0.800365109140    12.000000000000
         C            4.914517325709     1.427172763923    -0.810244275278    12.000000000000
         C            3.693150221984     3.542795183979    -0.810194475642    12.000000000000
         C           -2.456437569560    -1.418313389406    -0.817098786231    12.000000000000
         C            1.226704872451    -3.543474350473    -0.816438573109    12.000000000000
         C           -2.455125368000     2.834216554068    -0.816821138922    12.000000000000
         C            4.914524411290    -1.427187018510    -0.807271532544    12.000000000000
         C            1.221424644206     4.970133956694    -0.807133098284    12.000000000000
         C            4.893008259828     2.825187891460    -0.809027606920    12.000000000000
         C           -1.226696977981    -3.543471105643    -0.816171368699    12.000000000000
         C           -3.681818946018     0.709324858166    -0.816712277828    12.000000000000
         C            3.693147131658    -3.542801449957    -0.807153641983    12.000000000000
         C           -1.221432221486     4.970128189296    -0.806949602912    12.000000000000
         C            6.134771003434     0.680547838539    -0.809474500729    12.000000000000
         C            3.656788911118     4.972953135001    -0.809285837860    12.000000000000
         C           -2.455126877226    -2.834215201627    -0.801048740455    12.000000000000
         C           -3.681819148553    -0.709325812035    -0.800534852711    12.000000000000
         C            4.893012648421    -2.825200214198    -0.808416455024    12.000000000000
         C           -0.000001042605     5.650447257466    -0.808180911619    12.000000000000
         C            6.134775142840    -0.680554962641    -0.808209180213    12.000000000000
         C            2.478131513363     5.653576642765    -0.807997058210    12.000000000000
         C            1.221422435245    -4.970127163499    -0.809932595307    12.000000000000
         C           -3.693162353457     3.542796845626    -0.810028968183    12.000000000000
         C           -1.221428490437    -4.970118412162    -0.810045357140    12.000000000000
         C           -4.914521777434     1.427175338429    -0.810167330271    12.000000000000
         C            3.656787050187    -4.972955334806    -0.807835337326    12.000000000000
         C           -2.478138499598     5.653574313962    -0.807712533201    12.000000000000
         C           -3.693141708056    -3.542790327545    -0.807269768139    12.000000000000
         C           -4.914512452545    -1.427181108594    -0.807236835370    12.000000000000
         C           -0.000005978418    -5.650438395580    -0.808576415740    12.000000000000
         C           -4.893020453593     2.825188490353    -0.809037688780    12.000000000000
         C            2.478126023806    -5.653573652455    -0.808925938118    12.000000000000
         C           -3.656798679750     4.972956073475    -0.809109157485    12.000000000000
         C           -4.892999448349    -2.825191875626    -0.808570490722    12.000000000000
         C           -2.478128467575    -5.653566278573    -0.809201125765    12.000000000000
         C           -6.134770472823     0.680548657690    -0.809500052431    12.000000000000
         C           -3.656788802681    -4.972944131537    -0.808049625142    12.000000000000
         C           -6.134765012405    -0.680554024048    -0.808229656008    12.000000000000
         H            5.835288526324     3.369275786388    -0.804668281257     1.007825032230
         H            7.073859203255     1.228217140333    -0.809012857335     1.007825032230
         H            4.600663294682     5.512380693887    -0.808780637108     1.007825032230
         H            5.835283417813    -3.369306165295    -0.812870922339     1.007825032230
         H           -0.000012120798     6.738530565570    -0.812530156626     1.007825032230
         H            7.073861202338    -1.228227051310    -0.808717918307     1.007825032230
         H            2.473313762307     6.740684182828    -0.808463779140     1.007825032230
         H            4.600668521889    -5.512376237742    -0.808245334494     1.007825032230
         H           -2.473318650030     6.740681611040    -0.808162432515     1.007825032230
         H           -0.000010237720    -6.738528285018    -0.804046730755     1.007825032230
         H           -5.835301883836     3.369270841730    -0.804532259109     1.007825032230
         H            2.473307954339    -6.740685482995    -0.808355607693     1.007825032230
         H           -4.600674810700     5.512377918037    -0.808615308784     1.007825032230
         H           -5.835279476327    -3.369289072346    -0.813150228220     1.007825032230
         H           -2.473300316932    -6.740679186706    -0.808804924237     1.007825032230
         H           -7.073857736260     1.228220364274    -0.809096848816     1.007825032230
         H           -4.600673755577    -5.512362778353    -0.808417642517     1.007825032230
         H           -7.073856903901    -1.228220740543    -0.808812774774     1.007825032230

  Charge       = 0
  Multiplicity = 1
  Basis Set: JUN-CC-PVDZ
    Blend: JUN-CC-PVDZ
  Basis Set: (JUN-CC-PVDZ AUX)
    Blend: JUN-CC-PVDZ-JKFIT

    Orbital Energies [Eh]
    ---------------------

    Doubly Occupied:

       1A    -11.260673     2A    -11.260230     3A    -11.260227
       4A    -11.259519     5A    -11.259517     6A    -11.259348
       7A    -11.259139     8A    -11.259062     9A    -11.259060
      10A    -11.258736    11A    -11.258732    12A    -11.258663
      13A    -11.258601    14A    -11.258596    15A    -11.258593
      16A    -11.258564    17A    -11.258558    18A    -11.258542
      19A    -11.258529    20A    -11.258524    21A    -11.258518
      22A    -11.258420    23A    -11.258416    24A    -11.258118
      25A    -11.257458    26A    -11.257396    27A    -11.257395
      28A    -11.257260    29A    -11.257260    30A    -11.257176
      31A    -11.256553    32A    -11.256482    33A    -11.256482
      34A    -11.256372    35A    -11.256372    36A    -11.256325
      37A    -11.252399    38A    -11.252399    39A    -11.252397
      40A    -11.252396    41A    -11.252394    42A    -11.252392
      43A    -11.251533    44A    -11.251531    45A    -11.251530
      46A    -11.251524    47A    -11.251523    48A    -11.251519
      49A    -11.250961    50A    -11.250960    51A    -11.250959
      52A    -11.250957    53A    -11.250955    54A    -11.250954
      55A     -1.244294    56A     -1.220013    57A     -1.220013
      58A     -1.189721    59A     -1.189714    60A     -1.181164
      61A     -1.157722    62A     -1.149154    63A     -1.135704
      64A     -1.135697    65A     -1.113355    66A     -1.113351
      67A     -1.082628    68A     -1.082621    69A     -1.078810
      70A     -1.066139    71A     -1.066135    72A     -1.039578
      73A     -1.024488    74A     -1.021990    75A     -1.021948
      76A     -1.017888    77A     -1.012949    78A     -0.987219
      79A     -0.987173    80A     -0.962048    81A     -0.961999
      82A     -0.894467    83A     -0.894441    84A     -0.888163
      85A     -0.886410    86A     -0.886352    87A     -0.881599
      88A     -0.881551    89A     -0.862073    90A     -0.837552
      91A     -0.818389    92A     -0.816829    93A     -0.812338
      94A     -0.812328    95A     -0.794854    96A     -0.794843
      97A     -0.746837    98A     -0.745064    99A     -0.733630
     100A     -0.733622   101A     -0.732352   102A     -0.732329
     103A     -0.716698   104A     -0.699149   105A     -0.699138
     106A     -0.693775   107A     -0.693759   108A     -0.661399
     109A     -0.653331   110A     -0.651377   111A     -0.650417
     112A     -0.650411   113A     -0.639529   114A     -0.639527
     115A     -0.629912   116A     -0.627724   117A     -0.627707
     118A     -0.606460   119A     -0.605935   120A     -0.601864
     121A     -0.599918   122A     -0.599887   123A     -0.593822
     124A     -0.591451   125A     -0.591441   126A     -0.585420
     127A     -0.576419   128A     -0.576412   129A     -0.567478
     130A     -0.567464   131A     -0.566164   132A     -0.566144
     133A     -0.558939   134A     -0.555022   135A     -0.555016
     136A     -0.538759   137A     -0.538757   138A     -0.538288
     139A     -0.538282   140A     -0.529895   141A     -0.528206
     142A     -0.523050   143A     -0.523044   144A     -0.500668
     145A     -0.495719   146A     -0.493407   147A     -0.487947
     148A     -0.485265   149A     -0.481946   150A     -0.481938
     151A     -0.470438   152A     -0.470418   153A     -0.451249
     154A     -0.451171   155A     -0.439189   156A     -0.439180
     157A     -0.404868   158A     -0.404846   159A     -0.403490
     160A     -0.375543   161A     -0.375541   162A     -0.349247
     163A     -0.337715   164A     -0.336683   165A     -0.336624
     166A     -0.311224   167A     -0.298211   168A     -0.284480
     169A     -0.284426   170A     -0.225048   171A     -0.224982

  @DF-RHF Final Energy: -2055.89168401064717

   => Energetics <=

    Nuclear Repulsion Energy =           6452.5568002797781446
    One-Electron Energy =              -15636.4267524017395772
    Two-Electron Energy =                7127.9782681113129001
    Total Energy =                      -2055.8916840106476229
 Dipole X            :          0.0000805            0.0000112            0.0000917
 Dipole Y            :          0.0000259           -0.0000531           -0.0000272
 Dipole Z            :        522.6100505         -522.6114577           -0.0014072
 Magnitude           :                                                    0.0014105

    SAPT Results
  --------------------------------------------------------------------------------------------------------
    Electrostatics                  7.48447093 [mEh]       4.69657641 [kcal/mol]      19.65047571 [kJ/mol]
      Elst10,r                      7.48447093 [mEh]       4.69657641 [kcal/mol]      19.65047571 [kJ/mol]

    Exchange                       -0.00018445 [mEh]      -0.00011574 [kcal/mol]      -0.00048427 [kJ/mol]
      Exch10                       -0.00018445 [mEh]      -0.00011574 [kcal/mol]      -0.00048427 [kJ/mol]
      Exch10(S^2)                  -0.00018445 [mEh]      -0.00011574 [kcal/mol]      -0.00048427 [kJ/mol]

    Induction                      -2.33326236 [mEh]      -1.46414424 [kcal/mol]      -6.12597949 [kJ/mol]
      Ind20,r                      -2.34897846 [mEh]      -1.47400624 [kcal/mol]      -6.16724211 [kJ/mol]
      Exch-Ind20,r                  0.00012813 [mEh]       0.00008040 [kcal/mol]       0.00033639 [kJ/mol]
      delta HF,r (2)                0.01558798 [mEh]       0.00978160 [kcal/mol]       0.04092622 [kJ/mol]

    Dispersion                     -0.39576340 [mEh]      -0.24834528 [kcal/mol]      -1.03907666 [kJ/mol]
      Disp20                       -0.39587273 [mEh]      -0.24841389 [kcal/mol]      -1.03936370 [kJ/mol]
      Exch-Disp20                   0.00010933 [mEh]       0.00006860 [kcal/mol]       0.00028704 [kJ/mol]
      Disp20 (SS)                  -0.19793636 [mEh]      -0.12420694 [kcal/mol]      -0.51968185 [kJ/mol]
      Disp20 (OS)                  -0.19793636 [mEh]      -0.12420694 [kcal/mol]      -0.51968185 [kJ/mol]
      Exch-Disp20 (SS)              0.00008454 [mEh]       0.00005305 [kcal/mol]       0.00022195 [kJ/mol]
      Exch-Disp20 (OS)              0.00002479 [mEh]       0.00001556 [kcal/mol]       0.00006509 [kJ/mol]

  Total HF                          5.15102411 [mEh]       3.23231643 [kcal/mol]      13.52401195 [kJ/mol]
  Total SAPT0                       4.75526071 [mEh]       2.98397115 [kcal/mol]      12.48493528 [kJ/mol]

  Special recipe for scaled SAPT0 (see Manual):
    Electrostatics sSAPT0           7.48447093 [mEh]       4.69657641 [kcal/mol]      19.65047571 [kJ/mol]
    Exchange sSAPT0                -0.00018445 [mEh]      -0.00011574 [kcal/mol]      -0.00048427 [kJ/mol]
    Induction sSAPT0               -2.33326236 [mEh]      -1.46414424 [kcal/mol]      -6.12597949 [kJ/mol]
    Dispersion sSAPT0              -0.39576340 [mEh]      -0.24834528 [kcal/mol]      -1.03907666 [kJ/mol]
  Total sSAPT0                      4.75526071 [mEh]       2.98397115 [kcal/mol]      12.48493528 [kJ/mol]
  --------------------------------------------------------------------------------------------------------

*** Psi4 exiting successfully. Buy a developer a beer!
