                               Psi4 1.9 release

  ==> Input File <==

--------------------------------------------------------------------------
memory 32 GB # how much memory is available ! Depends on the nodes/cores !

molecule dimer {
# monomer A
-1 1    # Charge and multiplicity
B -0.000046  0.000337 6.399994
F -1.153597  0.000048 7.215641
F  1.153661 -0.000581 7.215641
F -0.000019 -1.153637 5.584360
F -0.000019  1.153978 5.584360
--
# monomer B
0 1     # Charge and multiplicity
C   1.22531237526482      0.70753866091955      0.00613762728373
C   1.22532433589282     -0.70753852257020     -0.00619318228664
C   -0.00000567409046      1.41496628609039     -0.00672680580738
C   2.45644923379077      1.41832825917820      0.00902448468363
C   0.00001130712078     -1.41497612663474      0.00347275151708
C   -1.22530046906674      0.70754574598412      0.00838914760619
C   2.45643823516184     -1.41832293188077     -0.00843833914343
C   -0.00000085313587      2.83680140328112     -0.00913035594137
C   3.68182717731192      0.70931832800114     -0.00808954934571
C   2.45512052870677      2.83422403348893     -0.00819210630633
C   3.68182158506039     -0.70933346742900      0.00798293467272
C   -1.22531311884624     -0.70752714354401     -0.00512042085974
C   1.22670006104402      3.54346985599427      0.00816696660346
C   0.00000526469929     -2.83678176723568      0.00832091913869
C   -2.45643555300670      1.41831729028492      0.00842454345199
C   2.45512389762097     -2.83422965658853      0.00783102630520
C   -1.22671388474763      3.54346943575023      0.00827029982280
C   4.91451777504333      1.42717324448953     -0.00160886631602
C   3.69315067131765      3.54279566454522     -0.00155906667985
C   -2.45643712022637     -1.41831290883911     -0.00846337726810
C   1.22670532178455     -3.54347386990643     -0.00780316414624
C   -2.45512491866593      2.83421703463423     -0.00818572995999
C   4.91452486062398     -1.42718653794377      0.00136387641845
C   1.22142509354026      4.97013443726031      0.00150231067809
C   4.89300870916237      2.82518837202648     -0.00039219795739
C   -1.22669652864725     -3.54347062507680     -0.00753595973677
C   -3.68181849668397      0.70932533873199     -0.00807686886569
C   3.69314758099218     -3.54280096939050      0.00148176697923
C   -1.22143177215231      4.97012866986289      0.00168580605083
C   6.13477145276790      0.68054831910577     -0.00083909176631
C   3.65678936045204      4.97295361556775     -0.00065042889723
C   -2.45512642789169     -2.83421472106065      0.00758666850712
C   -3.68181869921921     -0.70932533146830      0.00810055625144
C   4.89301309775526     -2.82519973363176      0.00021895393805
C   -0.00000059327114      5.65044773803267      0.00045449734393
C   6.13477559217374     -0.68055448207492      0.00042622874941
C   2.47813196269732      5.65357712333155      0.00063835075260
C   1.22142288457925     -4.97012668293268     -0.00129718634452
C   -3.69316190412301      3.54279732619245     -0.00139355922051
C   -1.22142804110313     -4.97011793159564     -0.00140994817719
C   -4.91452132810043      1.42717581899491     -0.00153192130862
C   3.65678749952045     -4.97295485423912      0.00080007163680
C   -2.47813805026426      5.65357479452875      0.00092287576113
C   -3.69314125872231     -3.54278984697859      0.00136564082345
C   -4.91451200321153     -1.42718062802730      0.00139857359209
C   -0.00000552908399     -5.65043791501335      0.00005899322272
C   -4.89302000425900      2.82518897091939     -0.00040227981744
C   2.47812647313991     -5.65357317188818     -0.00029052915548
C   -3.65679823041642      4.97295655404175     -0.00047374852278
C   -4.89299899901461     -2.82519139505969      0.00006491824035
C   -2.47812801824129     -5.65356579800621     -0.00056571680280
C   -6.13477002348955      0.68054913825639     -0.00086464346868
C   -3.65678835334731     -4.97294365097028      0.00058578382008
C   -6.13476456307132     -0.68055354348201      0.00040575295444
H   5.83528897565761      3.36927626695423      0.00396712770529
H   7.07385965258860      1.22821762089947     -0.00037744837300
H   4.60066374401555      5.51238117445323     -0.00014522814529
H   5.83528386714679     -3.36930568472863     -0.00423551337640
H   -0.00001167146422      6.73853104613662     -0.00389474766392
H   7.07386165167227     -1.22822657074368     -0.00008250934481
H   2.47331421164041      6.74068466339473      0.00017162982210
H   4.60066897122302     -5.51237575717576      0.00039007446835
H   -2.47331820069565      6.74068209160650      0.00047297644710
H   -0.00000978838621     -6.73852780445195      0.00458867820736
H   -5.83530143450167      3.36927132229595      0.00410314985360
H   2.47330840367253     -6.74068500242887      0.00027980126949
H   -4.60067436136587      5.51237839860371      0.00002010017831
H   -5.83527902699321     -3.36928859177951     -0.00451481925734
H   -2.47329986759855     -6.74067870613986     -0.00016951527498
H   -7.07385728692578      1.22822084484047     -0.00046143985387
H   -4.60067330624313     -5.51236229778631      0.00021776644566
H   -7.07385645456741     -1.22822025997701     -0.00017736581114

    units angstrom      # Angstroms are the default
    no_reorient         # Geometry fixed, default
    symmetry c1         # C1 symmetry, default
}

set {
    scf_type DF         # Density fitting, faster than exact integrals
    freeze_core True    # Freeze core electrons
    basis jun-cc-pVDZ   # Jun-cc-pVDZ basis set, recommended for sSAPT0 in https://doi.org/10.1063/1.4867135
}

energy('ssapt0')        # Compute sSAPT0 energy, includes also SAPT0
--------------------------------------------------------------------------

  //              Dimer HF             //
    Molecular point group: c1
  Charge       = -1
  Multiplicity = 1
  Basis Set: JUN-CC-PVDZ
    Blend: JUN-CC-PVDZ
  Basis Set: (JUN-CC-PVDZ AUX)
    Blend: JUN-CC-PVDZ-JKFIT
  @DF-RHF Final Energy: -2478.65796836746085
    Total Energy =                      -2478.6579683674608532
 Dipole X            :         -0.0001908           -0.0000160           -0.0002069
 Dipole Y            :          0.0012517           -0.0001716            0.0010801
 Dipole Z            :         29.3808372          -39.2339600           -9.8531228
 Magnitude           :                                                    9.8531229
  //            Monomer A HF           //
    Molecular point group: c1
  Multiplicity = 1
  Basis Set: JUN-CC-PVDZ
    Blend: JUN-CC-PVDZ
  Basis Set: (JUN-CC-PVDZ AUX)
    Blend: JUN-CC-PVDZ-JKFIT
  @DF-RHF Final Energy:  -422.77153796790287
    Total Energy =                       -422.7715379679028729
  //            Monomer B HF           //
    Molecular point group: c1

    Geometry (in Angstrom), charge = 0, multiplicity = 1:

       Center              X                  Y                   Z               Mass
    ------------   -----------------  -----------------  -----------------  -----------------
      Gh(B)          -0.000046449334     0.000336519434     5.660670391763    11.009305360000
      Gh(F)          -1.153597449334     0.000047519434     6.476317391763    18.998403162730
      Gh(F)           1.153660550666    -0.000581480566     6.476317391763    18.998403162730
      Gh(F)          -0.000019449334    -1.153637480566     4.845036391763    18.998403162730
      Gh(F)          -0.000019449334     1.153977519434     4.845036391763    18.998403162730
         C            1.225311925931     0.707538180353    -0.733185980953    12.000000000000
         C            1.225323886559    -0.707539003137    -0.745516790523    12.000000000000
         C           -0.000006123424     1.414965805524    -0.746050414044    12.000000000000
         C            2.456448784457     1.418327778612    -0.730299123553    12.000000000000
         C            0.000010857787    -1.414976607201    -0.735850856719    12.000000000000
         C           -1.225300918401     0.707545265418    -0.730934460630    12.000000000000
         C            2.456437785828    -1.418323412447    -0.747761947380    12.000000000000
         C           -0.000001302470     2.836800922715    -0.748453964178    12.000000000000
         C            3.681826727978     0.709317847435    -0.747413157582    12.000000000000
         C            2.455120079373     2.834223552923    -0.747515714543    12.000000000000
         C            3.681821135726    -0.709333947995    -0.731340673564    12.000000000000
         C           -1.225313568180    -0.707527624110    -0.744444029096    12.000000000000
         C            1.226699611710     3.543469375428    -0.731156641633    12.000000000000
         C            0.000004815365    -2.836782247802    -0.731002689098    12.000000000000
         C           -2.456436002341     1.418316809719    -0.730899064785    12.000000000000
         C            2.455123448287    -2.834230137155    -0.731492581931    12.000000000000
         C           -1.226714334082     3.543468955184    -0.731053308414    12.000000000000
         C            4.914517325709     1.427172763923    -0.740932474553    12.000000000000
         C            3.693150221984     3.542795183979    -0.740882674916    12.000000000000
         C           -2.456437569560    -1.418313389406    -0.747786985505    12.000000000000
         C            1.226704872451    -3.543474350473    -0.747126772383    12.000000000000
         C           -2.455125368000     2.834216554068    -0.747509338197    12.000000000000
         C            4.914524411290    -1.427187018510    -0.737959731818    12.000000000000
         C            1.221424644206     4.970133956694    -0.737821297558    12.000000000000
         C            4.893008259828     2.825187891460    -0.739715806194    12.000000000000
         C           -1.226696977981    -3.543471105643    -0.746859567973    12.000000000000
         C           -3.681818946018     0.709324858166    -0.747400477102    12.000000000000
         C            3.693147131658    -3.542801449957    -0.737841841257    12.000000000000
         C           -1.221432221486     4.970128189296    -0.737637802186    12.000000000000
         C            6.134771003434     0.680547838539    -0.740162700003    12.000000000000
         C            3.656788911118     4.972953135001    -0.739974037134    12.000000000000
         C           -2.455126877226    -2.834215201627    -0.731736939729    12.000000000000
         C           -3.681819148553    -0.709325812035    -0.731223051985    12.000000000000
         C            4.893012648421    -2.825200214198    -0.739104654299    12.000000000000
         C           -0.000001042605     5.650447257466    -0.738869110893    12.000000000000
         C            6.134775142840    -0.680554962641    -0.738897379487    12.000000000000
         C            2.478131513363     5.653576642765    -0.738685257484    12.000000000000
         C            1.221422435245    -4.970127163499    -0.740620794581    12.000000000000
         C           -3.693162353457     3.542796845626    -0.740717167457    12.000000000000
         C           -1.221428490437    -4.970118412162    -0.740733556414    12.000000000000
         C           -4.914521777434     1.427175338429    -0.740855529545    12.000000000000
         C            3.656787050187    -4.972955334806    -0.738523536600    12.000000000000
         C           -2.478138499598     5.653574313962    -0.738400732475    12.000000000000
         C           -3.693141708056    -3.542790327545    -0.737957967413    12.000000000000
         C           -4.914512452545    -1.427181108594    -0.737925034644    12.000000000000
         C           -0.000005978418    -5.650438395580    -0.739264615014    12.000000000000
         C           -4.893020453593     2.825188490353    -0.739725888054    12.000000000000
         C            2.478126023806    -5.653573652455    -0.739614137392    12.000000000000
         C           -3.656798679750     4.972956073475    -0.739797356759    12.000000000000
         C           -4.892999448349    -2.825191875626    -0.739258689996    12.000000000000
         C           -2.478128467575    -5.653566278573    -0.739889325039    12.000000000000
         C           -6.134770472823     0.680548657690    -0.740188251705    12.000000000000
         C           -3.656788802681    -4.972944131537    -0.738737824416    12.000000000000
         C           -6.134765012405    -0.680554024048    -0.738917855282    12.000000000000
         H            5.835288526324     3.369275786388    -0.735356480531     1.007825032230
         H            7.073859203255     1.228217140333    -0.739701056610     1.007825032230
         H            4.600663294682     5.512380693887    -0.739468836382     1.007825032230
         H            5.835283417813    -3.369306165295    -0.743559121613     1.007825032230
         H           -0.000012120798     6.738530565570    -0.743218355900     1.007825032230
         H            7.073861202338    -1.228227051310    -0.739406117581     1.007825032230
         H            2.473313762307     6.740684182828    -0.739151978414     1.007825032230
         H            4.600668521889    -5.512376237742    -0.738933533768     1.007825032230
         H           -2.473318650030     6.740681611040    -0.738850631789     1.007825032230
         H           -0.000010237720    -6.738528285018    -0.734734930029     1.007825032230
         H           -5.835301883836     3.369270841730    -0.735220458383     1.007825032230
         H            2.473307954339    -6.740685482995    -0.739043806967     1.007825032230
         H           -4.600674810700     5.512377918037    -0.739303508058     1.007825032230
         H           -5.835279476327    -3.369289072346    -0.743838427494     1.007825032230
         H           -2.473300316932    -6.740679186706    -0.739493123512     1.007825032230
         H           -7.073857736260     1.228220364274    -0.739785048090     1.007825032230
         H           -4.600673755577    -5.512362778353    -0.739105841791     1.007825032230
         H           -7.073856903901    -1.228220740543    -0.739500974048     1.007825032230

  Charge       = 0
  Multiplicity = 1
  Basis Set: JUN-CC-PVDZ
    Blend: JUN-CC-PVDZ
  Basis Set: (JUN-CC-PVDZ AUX)
    Blend: JUN-CC-PVDZ-JKFIT

    Orbital Energies [Eh]
    ---------------------

    Doubly Occupied:

       1A    -11.260655     2A    -11.260214     3A    -11.260208
       4A    -11.259504     5A    -11.259500     6A    -11.259333
       7A    -11.259124     8A    -11.259047     9A    -11.259044
      10A    -11.258722    11A    -11.258717    12A    -11.258650
      13A    -11.258588    14A    -11.258584    15A    -11.258581
      16A    -11.258551    17A    -11.258546    18A    -11.258530
      19A    -11.258516    20A    -11.258511    21A    -11.258506
      22A    -11.258406    23A    -11.258401    24A    -11.258100
      25A    -11.257444    26A    -11.257381    27A    -11.257381
      28A    -11.257246    29A    -11.257245    30A    -11.257161
      31A    -11.256539    32A    -11.256468    33A    -11.256467
      34A    -11.256358    35A    -11.256357    36A    -11.256310
      37A    -11.252389    38A    -11.252389    39A    -11.252388
      40A    -11.252386    41A    -11.252384    42A    -11.252382
      43A    -11.251521    44A    -11.251519    45A    -11.251517
      46A    -11.251512    47A    -11.251511    48A    -11.251507
      49A    -11.250951    50A    -11.250950    51A    -11.250949
      52A    -11.250947    53A    -11.250945    54A    -11.250944
      55A     -1.244268    56A     -1.219996    57A     -1.219993
      58A     -1.189706    59A     -1.189698    60A     -1.181141
      61A     -1.157708    62A     -1.149139    63A     -1.135681
      64A     -1.135676    65A     -1.113342    66A     -1.113337
      67A     -1.082609    68A     -1.082603    69A     -1.078789
      70A     -1.066125    71A     -1.066122    72A     -1.039562
      73A     -1.024466    74A     -1.021965    75A     -1.021925
      76A     -1.017874    77A     -1.012936    78A     -0.987200
      79A     -0.987153    80A     -0.962033    81A     -0.961984
      82A     -0.894451    83A     -0.894425    84A     -0.888139
      85A     -0.886387    86A     -0.886327    87A     -0.881579
      88A     -0.881532    89A     -0.862057    90A     -0.837540
      91A     -0.818373    92A     -0.816807    93A     -0.812318
      94A     -0.812308    95A     -0.794839    96A     -0.794829
      97A     -0.746816    98A     -0.745043    99A     -0.733608
     100A     -0.733599   101A     -0.732337   102A     -0.732314
     103A     -0.716678   104A     -0.699132   105A     -0.699123
     106A     -0.693756   107A     -0.693742   108A     -0.661384
     109A     -0.653307   110A     -0.651353   111A     -0.650402
     112A     -0.650396   113A     -0.639513   114A     -0.639512
     115A     -0.629893   116A     -0.627704   117A     -0.627687
     118A     -0.606458   119A     -0.605925   120A     -0.601844
     121A     -0.599901   122A     -0.599871   123A     -0.593805
     124A     -0.591425   125A     -0.591417   126A     -0.585408
     127A     -0.576419   128A     -0.576404   129A     -0.567465
     130A     -0.567451   131A     -0.566142   132A     -0.566122
     133A     -0.558916   134A     -0.555005   135A     -0.555000
     136A     -0.538745   137A     -0.538742   138A     -0.538278
     139A     -0.538272   140A     -0.529879   141A     -0.528203
     142A     -0.523033   143A     -0.523027   144A     -0.500653
     145A     -0.495708   146A     -0.493391   147A     -0.487937
     148A     -0.485247   149A     -0.481928   150A     -0.481920
     151A     -0.470434   152A     -0.470405   153A     -0.451225
     154A     -0.451146   155A     -0.439179   156A     -0.439169
     157A     -0.404857   158A     -0.404834   159A     -0.403480
     160A     -0.375533   161A     -0.375530   162A     -0.349236
     163A     -0.337701   164A     -0.336672   165A     -0.336608
     166A     -0.311213   167A     -0.298202   168A     -0.284466
     169A     -0.284413   170A     -0.225037   171A     -0.224970

  @DF-RHF Final Energy: -2055.89181828559595

   => Energetics <=

    Nuclear Repulsion Energy =           6452.5568002797781446
    One-Electron Energy =              -15636.4322308080299990
    Two-Electron Energy =                7127.9836122426568181
    Total Energy =                      -2055.8918182855959458
 Dipole X            :          0.0000776            0.0000112            0.0000888
 Dipole Y            :          0.0000394           -0.0000531           -0.0000137
 Dipole Z            :        477.8131765         -477.8161880           -0.0030116
 Magnitude           :                                                    0.0030129

    SAPT Results
  --------------------------------------------------------------------------------------------------------
    Electrostatics                  8.48913048 [mEh]       5.32700980 [kcal/mol]      22.28820901 [kJ/mol]
      Elst10,r                      8.48913048 [mEh]       5.32700980 [kcal/mol]      22.28820901 [kJ/mol]

    Exchange                        0.00004728 [mEh]       0.00002967 [kcal/mol]       0.00012414 [kJ/mol]
      Exch10                        0.00004728 [mEh]       0.00002967 [kcal/mol]       0.00012414 [kJ/mol]
      Exch10(S^2)                   0.00004728 [mEh]       0.00002967 [kcal/mol]       0.00012415 [kJ/mol]

    Induction                      -3.10129172 [mEh]      -1.94608994 [kcal/mol]      -8.14244030 [kJ/mol]
      Ind20,r                      -3.12678601 [mEh]      -1.96208785 [kcal/mol]      -8.20937555 [kJ/mol]
      Exch-Ind20,r                  0.00052396 [mEh]       0.00032879 [kcal/mol]       0.00137566 [kJ/mol]
      delta HF,r (2)                0.02497033 [mEh]       0.01566912 [kcal/mol]       0.06555959 [kJ/mol]

    Dispersion                     -0.62670298 [mEh]      -0.39326206 [kcal/mol]      -1.64540844 [kJ/mol]
      Disp20                       -0.62726710 [mEh]      -0.39361604 [kcal/mol]      -1.64688953 [kJ/mol]
      Exch-Disp20                   0.00056412 [mEh]       0.00035399 [kcal/mol]       0.00148109 [kJ/mol]
      Disp20 (SS)                  -0.31363355 [mEh]      -0.19680802 [kcal/mol]      -0.82344477 [kJ/mol]
      Disp20 (OS)                  -0.31363355 [mEh]      -0.19680802 [kcal/mol]      -0.82344477 [kJ/mol]
      Exch-Disp20 (SS)              0.00043407 [mEh]       0.00027239 [kcal/mol]       0.00113966 [kJ/mol]
      Exch-Disp20 (OS)              0.00013005 [mEh]       0.00008160 [kcal/mol]       0.00034143 [kJ/mol]

  Total HF                          5.38788604 [mEh]       3.38094953 [kcal/mol]      14.14589284 [kJ/mol]
  Total SAPT0                       4.76118306 [mEh]       2.98768748 [kcal/mol]      12.50048441 [kJ/mol]

  Special recipe for scaled SAPT0 (see Manual):
    Electrostatics sSAPT0           8.48913048 [mEh]       5.32700980 [kcal/mol]      22.28820901 [kJ/mol]
    Exchange sSAPT0                 0.00004728 [mEh]       0.00002967 [kcal/mol]       0.00012414 [kJ/mol]
    Induction sSAPT0               -3.10129172 [mEh]      -1.94608994 [kcal/mol]      -8.14244030 [kJ/mol]
    Dispersion sSAPT0              -0.62670298 [mEh]      -0.39326206 [kcal/mol]      -1.64540844 [kJ/mol]
  Total sSAPT0                      4.76118306 [mEh]       2.98768748 [kcal/mol]      12.50048441 [kJ/mol]
  --------------------------------------------------------------------------------------------------------

*** Psi4 exiting successfully. Buy a developer a beer!
