                               Psi4 1.9 release

  ==> Input File <==

--------------------------------------------------------------------------
memory 32 GB # how much memory is available ! Depends on the nodes/cores !

molecule dimer {
# monomer A
-1 1    # Charge and multiplicity
B -0.000046  0.000337 4.799994
F -1.153597  0.000048 5.615641
F  1.153661 -0.000581 5.615641
F -0.000019 -1.153637 3.984360
F -0.000019  1.153978 3.984360
--
# monomer B
0 1     # Charge and multiplicity
C   1.22531237526482      0.70753866091955      0.00613762728373
C   1.22532433589282     -0.70753852257020     -0.00619318228664
C   -0.00000567409046      1.41496628609039     -0.00672680580738
C   2.45644923379077      1.41832825917820      0.00902448468363
C   0.00001130712078     -1.41497612663474      0.00347275151708
C   -1.22530046906674      0.70754574598412      0.00838914760619
C   2.45643823516184     -1.41832293188077     -0.00843833914343
C   -0.00000085313587      2.83680140328112     -0.00913035594137
C   3.68182717731192      0.70931832800114     -0.00808954934571
C   2.45512052870677      2.83422403348893     -0.00819210630633
C   3.68182158506039     -0.70933346742900      0.00798293467272
C   -1.22531311884624     -0.70752714354401     -0.00512042085974
C   1.22670006104402      3.54346985599427      0.00816696660346
C   0.00000526469929     -2.83678176723568      0.00832091913869
C   -2.45643555300670      1.41831729028492      0.00842454345199
C   2.45512389762097     -2.83422965658853      0.00783102630520
C   -1.22671388474763      3.54346943575023      0.00827029982280
C   4.91451777504333      1.42717324448953     -0.00160886631602
C   3.69315067131765      3.54279566454522     -0.00155906667985
C   -2.45643712022637     -1.41831290883911     -0.00846337726810
C   1.22670532178455     -3.54347386990643     -0.00780316414624
C   -2.45512491866593      2.83421703463423     -0.00818572995999
C   4.91452486062398     -1.42718653794377      0.00136387641845
C   1.22142509354026      4.97013443726031      0.00150231067809
C   4.89300870916237      2.82518837202648     -0.00039219795739
C   -1.22669652864725     -3.54347062507680     -0.00753595973677
C   -3.68181849668397      0.70932533873199     -0.00807686886569
C   3.69314758099218     -3.54280096939050      0.00148176697923
C   -1.22143177215231      4.97012866986289      0.00168580605083
C   6.13477145276790      0.68054831910577     -0.00083909176631
C   3.65678936045204      4.97295361556775     -0.00065042889723
C   -2.45512642789169     -2.83421472106065      0.00758666850712
C   -3.68181869921921     -0.70932533146830      0.00810055625144
C   4.89301309775526     -2.82519973363176      0.00021895393805
C   -0.00000059327114      5.65044773803267      0.00045449734393
C   6.13477559217374     -0.68055448207492      0.00042622874941
C   2.47813196269732      5.65357712333155      0.00063835075260
C   1.22142288457925     -4.97012668293268     -0.00129718634452
C   -3.69316190412301      3.54279732619245     -0.00139355922051
C   -1.22142804110313     -4.97011793159564     -0.00140994817719
C   -4.91452132810043      1.42717581899491     -0.00153192130862
C   3.65678749952045     -4.97295485423912      0.00080007163680
C   -2.47813805026426      5.65357479452875      0.00092287576113
C   -3.69314125872231     -3.54278984697859      0.00136564082345
C   -4.91451200321153     -1.42718062802730      0.00139857359209
C   -0.00000552908399     -5.65043791501335      0.00005899322272
C   -4.89302000425900      2.82518897091939     -0.00040227981744
C   2.47812647313991     -5.65357317188818     -0.00029052915548
C   -3.65679823041642      4.97295655404175     -0.00047374852278
C   -4.89299899901461     -2.82519139505969      0.00006491824035
C   -2.47812801824129     -5.65356579800621     -0.00056571680280
C   -6.13477002348955      0.68054913825639     -0.00086464346868
C   -3.65678835334731     -4.97294365097028      0.00058578382008
C   -6.13476456307132     -0.68055354348201      0.00040575295444
H   5.83528897565761      3.36927626695423      0.00396712770529
H   7.07385965258860      1.22821762089947     -0.00037744837300
H   4.60066374401555      5.51238117445323     -0.00014522814529
H   5.83528386714679     -3.36930568472863     -0.00423551337640
H   -0.00001167146422      6.73853104613662     -0.00389474766392
H   7.07386165167227     -1.22822657074368     -0.00008250934481
H   2.47331421164041      6.74068466339473      0.00017162982210
H   4.60066897122302     -5.51237575717576      0.00039007446835
H   -2.47331820069565      6.74068209160650      0.00047297644710
H   -0.00000978838621     -6.73852780445195      0.00458867820736
H   -5.83530143450167      3.36927132229595      0.00410314985360
H   2.47330840367253     -6.74068500242887      0.00027980126949
H   -4.60067436136587      5.51237839860371      0.00002010017831
H   -5.83527902699321     -3.36928859177951     -0.00451481925734
H   -2.47329986759855     -6.74067870613986     -0.00016951527498
H   -7.07385728692578      1.22822084484047     -0.00046143985387
H   -4.60067330624313     -5.51236229778631      0.00021776644566
H   -7.07385645456741     -1.22822025997701     -0.00017736581114

    units angstrom      # Angstroms are the default
    no_reorient         # Geometry fixed, default
    symmetry c1         # C1 symmetry, default
}

set {
    scf_type DF         # Density fitting, faster than exact integrals
    freeze_core True    # Freeze core electrons
    basis jun-cc-pVDZ   # Jun-cc-pVDZ basis set, recommended for sSAPT0 in https://doi.org/10.1063/1.4867135
}

energy('ssapt0')        # Compute sSAPT0 energy, includes also SAPT0
--------------------------------------------------------------------------

  //              Dimer HF             //
    Molecular point group: c1
  Charge       = -1
  Multiplicity = 1
  Basis Set: JUN-CC-PVDZ
    Blend: JUN-CC-PVDZ
  Basis Set: (JUN-CC-PVDZ AUX)
    Blend: JUN-CC-PVDZ-JKFIT
  @DF-RHF Final Energy: -2478.66093806375829
    Total Energy =                      -2478.6609380637582944
 Dipole X            :         -0.0002266           -0.0000160           -0.0002426
 Dipole Y            :          0.0012671           -0.0001716            0.0010955
 Dipole Z            :         22.5290970          -29.4254264           -6.8963294
 Magnitude           :                                                    6.8963295
  //            Monomer A HF           //
    Molecular point group: c1
  Multiplicity = 1
  Basis Set: JUN-CC-PVDZ
    Blend: JUN-CC-PVDZ
  Basis Set: (JUN-CC-PVDZ AUX)
    Blend: JUN-CC-PVDZ-JKFIT
  @DF-RHF Final Energy:  -422.77216527974593
    Total Energy =                       -422.7721652797459342
  //            Monomer B HF           //
    Molecular point group: c1

    Geometry (in Angstrom), charge = 0, multiplicity = 1:

       Center              X                  Y                   Z               Mass
    ------------   -----------------  -----------------  -----------------  -----------------
      Gh(B)          -0.000046449334     0.000336519434     4.245501860366    11.009305360000
      Gh(F)          -1.153597449334     0.000047519434     5.061148860366    18.998403162730
      Gh(F)           1.153660550666    -0.000581480566     5.061148860366    18.998403162730
      Gh(F)          -0.000019449334    -1.153637480566     3.429867860366    18.998403162730
      Gh(F)          -0.000019449334     1.153977519434     3.429867860366    18.998403162730
         C            1.225311925931     0.707538180353    -0.548354512350    12.000000000000
         C            1.225323886559    -0.707539003137    -0.560685321921    12.000000000000
         C           -0.000006123424     1.414965805524    -0.561218945441    12.000000000000
         C            2.456448784457     1.418327778612    -0.545467654950    12.000000000000
         C            0.000010857787    -1.414976607201    -0.551019388117    12.000000000000
         C           -1.225300918401     0.707545265418    -0.546102992028    12.000000000000
         C            2.456437785828    -1.418323412447    -0.562930478778    12.000000000000
         C           -0.000001302470     2.836800922715    -0.563622495575    12.000000000000
         C            3.681826727978     0.709317847435    -0.562581688980    12.000000000000
         C            2.455120079373     2.834223552923    -0.562684245940    12.000000000000
         C            3.681821135726    -0.709333947995    -0.546509204961    12.000000000000
         C           -1.225313568180    -0.707527624110    -0.559612560494    12.000000000000
         C            1.226699611710     3.543469375428    -0.546325173031    12.000000000000
         C            0.000004815365    -2.836782247802    -0.546171220495    12.000000000000
         C           -2.456436002341     1.418316809719    -0.546067596182    12.000000000000
         C            2.455123448287    -2.834230137155    -0.546661113329    12.000000000000
         C           -1.226714334082     3.543468955184    -0.546221839811    12.000000000000
         C            4.914517325709     1.427172763923    -0.556101005950    12.000000000000
         C            3.693150221984     3.542795183979    -0.556051206314    12.000000000000
         C           -2.456437569560    -1.418313389406    -0.562955516902    12.000000000000
         C            1.226704872451    -3.543474350473    -0.562295303780    12.000000000000
         C           -2.455125368000     2.834216554068    -0.562677869594    12.000000000000
         C            4.914524411290    -1.427187018510    -0.553128263216    12.000000000000
         C            1.221424644206     4.970133956694    -0.552989828956    12.000000000000
         C            4.893008259828     2.825187891460    -0.554884337591    12.000000000000
         C           -1.226696977981    -3.543471105643    -0.562028099371    12.000000000000
         C           -3.681818946018     0.709324858166    -0.562569008500    12.000000000000
         C            3.693147131658    -3.542801449957    -0.553010372655    12.000000000000
         C           -1.221432221486     4.970128189296    -0.552806333583    12.000000000000
         C            6.134771003434     0.680547838539    -0.555331231400    12.000000000000
         C            3.656788911118     4.972953135001    -0.555142568531    12.000000000000
         C           -2.455126877226    -2.834215201627    -0.546905471127    12.000000000000
         C           -3.681819148553    -0.709325812035    -0.546391583383    12.000000000000
         C            4.893012648421    -2.825200214198    -0.554273185696    12.000000000000
         C           -0.000001042605     5.650447257466    -0.554037642290    12.000000000000
         C            6.134775142840    -0.680554962641    -0.554065910885    12.000000000000
         C            2.478131513363     5.653576642765    -0.553853788881    12.000000000000
         C            1.221422435245    -4.970127163499    -0.555789325979    12.000000000000
         C           -3.693162353457     3.542796845626    -0.555885698855    12.000000000000
         C           -1.221428490437    -4.970118412162    -0.555902087811    12.000000000000
         C           -4.914521777434     1.427175338429    -0.556024060943    12.000000000000
         C            3.656787050187    -4.972955334806    -0.553692067997    12.000000000000
         C           -2.478138499598     5.653574313962    -0.553569263873    12.000000000000
         C           -3.693141708056    -3.542790327545    -0.553126498811    12.000000000000
         C           -4.914512452545    -1.427181108594    -0.553093566042    12.000000000000
         C           -0.000005978418    -5.650438395580    -0.554433146411    12.000000000000
         C           -4.893020453593     2.825188490353    -0.554894419452    12.000000000000
         C            2.478126023806    -5.653573652455    -0.554782668790    12.000000000000
         C           -3.656798679750     4.972956073475    -0.554965888157    12.000000000000
         C           -4.892999448349    -2.825191875626    -0.554427221394    12.000000000000
         C           -2.478128467575    -5.653566278573    -0.555057856437    12.000000000000
         C           -6.134770472823     0.680548657690    -0.555356783103    12.000000000000
         C           -3.656788802681    -4.972944131537    -0.553906355814    12.000000000000
         C           -6.134765012405    -0.680554024048    -0.554086386680    12.000000000000
         H            5.835288526324     3.369275786388    -0.550525011929     1.007825032230
         H            7.073859203255     1.228217140333    -0.554869588007     1.007825032230
         H            4.600663294682     5.512380693887    -0.554637367779     1.007825032230
         H            5.835283417813    -3.369306165295    -0.558727653010     1.007825032230
         H           -0.000012120798     6.738530565570    -0.558386887298     1.007825032230
         H            7.073861202338    -1.228227051310    -0.554574648979     1.007825032230
         H            2.473313762307     6.740684182828    -0.554320509812     1.007825032230
         H            4.600668521889    -5.512376237742    -0.554102065166     1.007825032230
         H           -2.473318650030     6.740681611040    -0.554019163187     1.007825032230
         H           -0.000010237720    -6.738528285018    -0.549903461427     1.007825032230
         H           -5.835301883836     3.369270841730    -0.550388989780     1.007825032230
         H            2.473307954339    -6.740685482995    -0.554212338365     1.007825032230
         H           -4.600674810700     5.512377918037    -0.554472039456     1.007825032230
         H           -5.835279476327    -3.369289072346    -0.559006958891     1.007825032230
         H           -2.473300316932    -6.740679186706    -0.554661654909     1.007825032230
         H           -7.073857736260     1.228220364274    -0.554953579488     1.007825032230
         H           -4.600673755577    -5.512362778353    -0.554274373188     1.007825032230
         H           -7.073856903901    -1.228220740543    -0.554669505445     1.007825032230

  Charge       = 0
  Multiplicity = 1
  Basis Set: JUN-CC-PVDZ
    Blend: JUN-CC-PVDZ
  Basis Set: (JUN-CC-PVDZ AUX)
    Blend: JUN-CC-PVDZ-JKFIT

    Orbital Energies [Eh]
    ---------------------

    Doubly Occupied:

       1A    -11.260651     2A    -11.260232     3A    -11.260174
       4A    -11.259497     5A    -11.259440     6A    -11.259288
       7A    -11.259062     8A    -11.259006     9A    -11.258965
      10A    -11.258671    11A    -11.258649    12A    -11.258568
      13A    -11.258508    14A    -11.258507    15A    -11.258505
      16A    -11.258469    17A    -11.258468    18A    -11.258448
      19A    -11.258446    20A    -11.258439    21A    -11.258426
      22A    -11.258367    23A    -11.258335    24A    -11.258081
      25A    -11.257358    26A    -11.257298    27A    -11.257296
      28A    -11.257169    29A    -11.257159    30A    -11.257080
      31A    -11.256452    32A    -11.256383    33A    -11.256382
      34A    -11.256279    35A    -11.256268    36A    -11.256226
      37A    -11.252322    38A    -11.252321    39A    -11.252317
      40A    -11.252316    41A    -11.252314    42A    -11.252313
      43A    -11.251438    44A    -11.251436    45A    -11.251432
      46A    -11.251429    47A    -11.251420    48A    -11.251416
      49A    -11.250884    50A    -11.250883    51A    -11.250878
      52A    -11.250877    53A    -11.250875    54A    -11.250874
      55A     -1.244104    56A     -1.219876    57A     -1.219853
      58A     -1.189595    59A     -1.189584    60A     -1.180985
      61A     -1.157610    62A     -1.149031    63A     -1.135538
      64A     -1.135530    65A     -1.113245    66A     -1.113237
      67A     -1.082477    68A     -1.082476    69A     -1.078646
      70A     -1.066031    71A     -1.066028    72A     -1.039449
      73A     -1.024324    74A     -1.021805    75A     -1.021772
      76A     -1.017780    77A     -1.012845    78A     -0.987070
      79A     -0.987026    80A     -0.961929    81A     -0.961880
      82A     -0.894341    83A     -0.894315    84A     -0.887977
      85A     -0.886236    86A     -0.886163    87A     -0.881442
      88A     -0.881403    89A     -0.861949    90A     -0.837460
      91A     -0.818260    92A     -0.816660    93A     -0.812185
      94A     -0.812174    95A     -0.794736    96A     -0.794730
      97A     -0.746670    98A     -0.744906    99A     -0.733465
     100A     -0.733444   101A     -0.732231   102A     -0.732210
     103A     -0.716542   104A     -0.699019   105A     -0.699017
     106A     -0.693629   107A     -0.693623   108A     -0.661280
     109A     -0.653147   110A     -0.651199   111A     -0.650301
     112A     -0.650297   113A     -0.639414   114A     -0.639406
     115A     -0.629760   116A     -0.627576   117A     -0.627548
     118A     -0.606502   119A     -0.605854   120A     -0.601710
     121A     -0.599776   122A     -0.599761   123A     -0.593688
     124A     -0.591260   125A     -0.591250   126A     -0.585326
     127A     -0.576457   128A     -0.576363   129A     -0.567372
     130A     -0.567360   131A     -0.566003   132A     -0.565977
     133A     -0.558766   134A     -0.554892   135A     -0.554888
     136A     -0.538644   137A     -0.538640   138A     -0.538222
     139A     -0.538218   140A     -0.529767   141A     -0.528204
     142A     -0.522917   143A     -0.522916   144A     -0.500553
     145A     -0.495641   146A     -0.493284   147A     -0.487870
     148A     -0.485121   149A     -0.481805   150A     -0.481797
     151A     -0.470409   152A     -0.470350   153A     -0.451067
     154A     -0.450983   155A     -0.439108   156A     -0.439100
     157A     -0.404786   158A     -0.404759   159A     -0.403420
     160A     -0.375458   161A     -0.375456   162A     -0.349163
     163A     -0.337638   164A     -0.336621   165A     -0.336531
     166A     -0.311127   167A     -0.298141   168A     -0.284380
     169A     -0.284341   170A     -0.224965   171A     -0.224886

  @DF-RHF Final Energy: -2055.89310584189161

   => Energetics <=

    Nuclear Repulsion Energy =           6452.5568002797781446
    One-Electron Energy =              -15636.4673016220895079
    Two-Electron Energy =                7128.0173955004192976
    Total Energy =                      -2055.8931058418911562
 Dipole X            :          0.0000666            0.0000112            0.0000778
 Dipole Y            :          0.0002584           -0.0000531            0.0002053
 Dipole Z            :        358.3581943         -358.3621356           -0.0039413
 Magnitude           :                                                    0.0039475

    SAPT Results
  --------------------------------------------------------------------------------------------------------
    Electrostatics                 11.47947688 [mEh]       7.20348050 [kcal/mol]      30.13936240 [kJ/mol]
      Elst10,r                     11.47947688 [mEh]       7.20348050 [kcal/mol]      30.13936240 [kJ/mol]

    Exchange                        0.27096658 [mEh]       0.17003409 [kcal/mol]       0.71142265 [kJ/mol]
      Exch10                        0.27096658 [mEh]       0.17003409 [kcal/mol]       0.71142265 [kJ/mol]
      Exch10(S^2)                   0.27097381 [mEh]       0.17003864 [kcal/mol]       0.71144165 [kJ/mol]

    Induction                      -7.41738558 [mEh]      -4.65447972 [kcal/mol]     -19.47434315 [kJ/mol]
      Ind20,r                      -7.53206305 [mEh]      -4.72644092 [kcal/mol]     -19.77542881 [kJ/mol]
      Exch-Ind20,r                  0.05333951 [mEh]       0.03347105 [kcal/mol]       0.14004286 [kJ/mol]
      delta HF,r (2)                0.06133796 [mEh]       0.03849015 [kcal/mol]       0.16104280 [kJ/mol]

    Dispersion                     -2.78272095 [mEh]      -1.74618376 [kcal/mol]      -7.30603285 [kJ/mol]
      Disp20                       -2.84785626 [mEh]      -1.78705679 [kcal/mol]      -7.47704559 [kJ/mol]
      Exch-Disp20                   0.06513531 [mEh]       0.04087303 [kcal/mol]       0.17101274 [kJ/mol]
      Disp20 (SS)                  -1.42392813 [mEh]      -0.89352839 [kcal/mol]      -3.73852279 [kJ/mol]
      Disp20 (OS)                  -1.42392813 [mEh]      -0.89352839 [kcal/mol]      -3.73852279 [kJ/mol]
      Exch-Disp20 (SS)              0.04339684 [mEh]       0.02723193 [kcal/mol]       0.11393838 [kJ/mol]
      Exch-Disp20 (OS)              0.02173847 [mEh]       0.01364110 [kcal/mol]       0.05707436 [kJ/mol]

  Total HF                          4.33305788 [mEh]       2.71903487 [kcal/mol]      11.37644189 [kJ/mol]
  Total SAPT0                       1.55033693 [mEh]       0.97285111 [kcal/mol]       4.07040905 [kJ/mol]

  Special recipe for scaled SAPT0 (see Manual):
    Electrostatics sSAPT0          11.47947688 [mEh]       7.20348050 [kcal/mol]      30.13936240 [kJ/mol]
    Exchange sSAPT0                 0.27096658 [mEh]       0.17003409 [kcal/mol]       0.71142265 [kJ/mol]
    Induction sSAPT0               -7.41738985 [mEh]      -4.65448240 [kcal/mol]     -19.47435437 [kJ/mol]
    Dispersion sSAPT0              -2.78272617 [mEh]      -1.74618703 [kcal/mol]      -7.30604655 [kJ/mol]
  Total sSAPT0                      1.55032743 [mEh]       0.97284515 [kcal/mol]       4.07038412 [kJ/mol]
  --------------------------------------------------------------------------------------------------------

*** Psi4 exiting successfully. Buy a developer a beer!
