                               Psi4 1.9 release

  ==> Input File <==

--------------------------------------------------------------------------
memory 48 GB # how much memory is available ! Depends on the nodes/cores !

molecule dimer {
# monomer A
-1 1    # Charge and multiplicity
B -0.000046  0.000337 2.699994
F -1.153597  0.000048 3.515641
F  1.153661 -0.000581 3.515641
F -0.000019 -1.153637 1.884360
F -0.000019  1.153978 1.884360
--
# monomer B
0 1     # Charge and multiplicity
C   1.22531237526482      0.70753866091955      0.00613762728373
C   1.22532433589282     -0.70753852257020     -0.00619318228664
C   -0.00000567409046      1.41496628609039     -0.00672680580738
C   2.45644923379077      1.41832825917820      0.00902448468363
C   0.00001130712078     -1.41497612663474      0.00347275151708
C   -1.22530046906674      0.70754574598412      0.00838914760619
C   2.45643823516184     -1.41832293188077     -0.00843833914343
C   -0.00000085313587      2.83680140328112     -0.00913035594137
C   3.68182717731192      0.70931832800114     -0.00808954934571
C   2.45512052870677      2.83422403348893     -0.00819210630633
C   3.68182158506039     -0.70933346742900      0.00798293467272
C   -1.22531311884624     -0.70752714354401     -0.00512042085974
C   1.22670006104402      3.54346985599427      0.00816696660346
C   0.00000526469929     -2.83678176723568      0.00832091913869
C   -2.45643555300670      1.41831729028492      0.00842454345199
C   2.45512389762097     -2.83422965658853      0.00783102630520
C   -1.22671388474763      3.54346943575023      0.00827029982280
C   4.91451777504333      1.42717324448953     -0.00160886631602
C   3.69315067131765      3.54279566454522     -0.00155906667985
C   -2.45643712022637     -1.41831290883911     -0.00846337726810
C   1.22670532178455     -3.54347386990643     -0.00780316414624
C   -2.45512491866593      2.83421703463423     -0.00818572995999
C   4.91452486062398     -1.42718653794377      0.00136387641845
C   1.22142509354026      4.97013443726031      0.00150231067809
C   4.89300870916237      2.82518837202648     -0.00039219795739
C   -1.22669652864725     -3.54347062507680     -0.00753595973677
C   -3.68181849668397      0.70932533873199     -0.00807686886569
C   3.69314758099218     -3.54280096939050      0.00148176697923
C   -1.22143177215231      4.97012866986289      0.00168580605083
C   6.13477145276790      0.68054831910577     -0.00083909176631
C   3.65678936045204      4.97295361556775     -0.00065042889723
C   -2.45512642789169     -2.83421472106065      0.00758666850712
C   -3.68181869921921     -0.70932533146830      0.00810055625144
C   4.89301309775526     -2.82519973363176      0.00021895393805
C   -0.00000059327114      5.65044773803267      0.00045449734393
C   6.13477559217374     -0.68055448207492      0.00042622874941
C   2.47813196269732      5.65357712333155      0.00063835075260
C   1.22142288457925     -4.97012668293268     -0.00129718634452
C   -3.69316190412301      3.54279732619245     -0.00139355922051
C   -1.22142804110313     -4.97011793159564     -0.00140994817719
C   -4.91452132810043      1.42717581899491     -0.00153192130862
C   3.65678749952045     -4.97295485423912      0.00080007163680
C   -2.47813805026426      5.65357479452875      0.00092287576113
C   -3.69314125872231     -3.54278984697859      0.00136564082345
C   -4.91451200321153     -1.42718062802730      0.00139857359209
C   -0.00000552908399     -5.65043791501335      0.00005899322272
C   -4.89302000425900      2.82518897091939     -0.00040227981744
C   2.47812647313991     -5.65357317188818     -0.00029052915548
C   -3.65679823041642      4.97295655404175     -0.00047374852278
C   -4.89299899901461     -2.82519139505969      0.00006491824035
C   -2.47812801824129     -5.65356579800621     -0.00056571680280
C   -6.13477002348955      0.68054913825639     -0.00086464346868
C   -3.65678835334731     -4.97294365097028      0.00058578382008
C   -6.13476456307132     -0.68055354348201      0.00040575295444
H   5.83528897565761      3.36927626695423      0.00396712770529
H   7.07385965258860      1.22821762089947     -0.00037744837300
H   4.60066374401555      5.51238117445323     -0.00014522814529
H   5.83528386714679     -3.36930568472863     -0.00423551337640
H   -0.00001167146422      6.73853104613662     -0.00389474766392
H   7.07386165167227     -1.22822657074368     -0.00008250934481
H   2.47331421164041      6.74068466339473      0.00017162982210
H   4.60066897122302     -5.51237575717576      0.00039007446835
H   -2.47331820069565      6.74068209160650      0.00047297644710
H   -0.00000978838621     -6.73852780445195      0.00458867820736
H   -5.83530143450167      3.36927132229595      0.00410314985360
H   2.47330840367253     -6.74068500242887      0.00027980126949
H   -4.60067436136587      5.51237839860371      0.00002010017831
H   -5.83527902699321     -3.36928859177951     -0.00451481925734
H   -2.47329986759855     -6.74067870613986     -0.00016951527498
H   -7.07385728692578      1.22822084484047     -0.00046143985387
H   -4.60067330624313     -5.51236229778631      0.00021776644566
H   -7.07385645456741     -1.22822025997701     -0.00017736581114

    units angstrom      # Angstroms are the default
    no_reorient         # Geometry fixed, default
    symmetry c1         # C1 symmetry, default
}

set {
    scf_type DF         # Density fitting, faster than exact integrals
    freeze_core True    # Freeze core electrons
    basis jun-cc-pVDZ   # Jun-cc-pVDZ basis set, recommended for sSAPT0 in https://doi.org/10.1063/1.4867135
}

energy('ssapt0')        # Compute sSAPT0 energy, includes also SAPT0
--------------------------------------------------------------------------

  //              Dimer HF             //
    Molecular point group: c1
  Charge       = -1
  Multiplicity = 1
  Basis Set: JUN-CC-PVDZ
    Blend: JUN-CC-PVDZ
  Basis Set: (JUN-CC-PVDZ AUX)
    Blend: JUN-CC-PVDZ-JKFIT
  @DF-RHF Final Energy: -2478.51995511011546
    Total Energy =                      -2478.5199551101159159
 Dipole X            :         -0.0002697           -0.0000160           -0.0002858
 Dipole Y            :         -0.0052825           -0.0001716           -0.0054542
 Dipole Z            :         13.9884460          -16.5517260           -2.5632800
 Magnitude           :                                                    2.5632858
  //            Monomer A HF           //
    Molecular point group: c1
  Multiplicity = 1
  Basis Set: JUN-CC-PVDZ
    Blend: JUN-CC-PVDZ
  Basis Set: (JUN-CC-PVDZ AUX)
    Blend: JUN-CC-PVDZ-JKFIT
  @DF-RHF Final Energy:  -422.77632025222749
    Total Energy =                       -422.7763202522274923
  //            Monomer B HF           //
    Molecular point group: c1

    Geometry (in Angstrom), charge = 0, multiplicity = 1:

       Center              X                  Y                   Z               Mass
    ------------   -----------------  -----------------  -----------------  -----------------
      Gh(B)          -0.000046449334     0.000336519434     2.388093162907    11.009305360000
      Gh(F)          -1.153597449334     0.000047519434     3.203740162907    18.998403162730
      Gh(F)           1.153660550666    -0.000581480566     3.203740162907    18.998403162730
      Gh(F)          -0.000019449334    -1.153637480566     1.572459162907    18.998403162730
      Gh(F)          -0.000019449334     1.153977519434     1.572459162907    18.998403162730
         C            1.225311925931     0.707538180353    -0.305763209810    12.000000000000
         C            1.225323886559    -0.707539003137    -0.318094019380    12.000000000000
         C           -0.000006123424     1.414965805524    -0.318627642901    12.000000000000
         C            2.456448784457     1.418327778612    -0.302876352410    12.000000000000
         C            0.000010857787    -1.414976607201    -0.308428085576    12.000000000000
         C           -1.225300918401     0.707545265418    -0.303511689487    12.000000000000
         C            2.456437785828    -1.418323412447    -0.320339176237    12.000000000000
         C           -0.000001302470     2.836800922715    -0.321031193035    12.000000000000
         C            3.681826727978     0.709317847435    -0.319990386439    12.000000000000
         C            2.455120079373     2.834223552923    -0.320092943400    12.000000000000
         C            3.681821135726    -0.709333947995    -0.303917902421    12.000000000000
         C           -1.225313568180    -0.707527624110    -0.317021257953    12.000000000000
         C            1.226699611710     3.543469375428    -0.303733870490    12.000000000000
         C            0.000004815365    -2.836782247802    -0.303579917955    12.000000000000
         C           -2.456436002341     1.418316809719    -0.303476293641    12.000000000000
         C            2.455123448287    -2.834230137155    -0.304069810788    12.000000000000
         C           -1.226714334082     3.543468955184    -0.303630537271    12.000000000000
         C            4.914517325709     1.427172763923    -0.313509703409    12.000000000000
         C            3.693150221984     3.542795183979    -0.313459903773    12.000000000000
         C           -2.456437569560    -1.418313389406    -0.320364214361    12.000000000000
         C            1.226704872451    -3.543474350473    -0.319704001240    12.000000000000
         C           -2.455125368000     2.834216554068    -0.320086567053    12.000000000000
         C            4.914524411290    -1.427187018510    -0.310536960675    12.000000000000
         C            1.221424644206     4.970133956694    -0.310398526415    12.000000000000
         C            4.893008259828     2.825187891460    -0.312293035051    12.000000000000
         C           -1.226696977981    -3.543471105643    -0.319436796830    12.000000000000
         C           -3.681818946018     0.709324858166    -0.319977705959    12.000000000000
         C            3.693147131658    -3.542801449957    -0.310419070114    12.000000000000
         C           -1.221432221486     4.970128189296    -0.310215031043    12.000000000000
         C            6.134771003434     0.680547838539    -0.312739928860    12.000000000000
         C            3.656788911118     4.972953135001    -0.312551265991    12.000000000000
         C           -2.455126877226    -2.834215201627    -0.304314168586    12.000000000000
         C           -3.681819148553    -0.709325812035    -0.303800280842    12.000000000000
         C            4.893012648421    -2.825200214198    -0.311681883155    12.000000000000
         C           -0.000001042605     5.650447257466    -0.311446339749    12.000000000000
         C            6.134775142840    -0.680554962641    -0.311474608344    12.000000000000
         C            2.478131513363     5.653576642765    -0.311262486341    12.000000000000
         C            1.221422435245    -4.970127163499    -0.313198023438    12.000000000000
         C           -3.693162353457     3.542796845626    -0.313294396314    12.000000000000
         C           -1.221428490437    -4.970118412162    -0.313310785271    12.000000000000
         C           -4.914521777434     1.427175338429    -0.313432758402    12.000000000000
         C            3.656787050187    -4.972955334806    -0.311100765457    12.000000000000
         C           -2.478138499598     5.653574313962    -0.310977961332    12.000000000000
         C           -3.693141708056    -3.542790327545    -0.310535196270    12.000000000000
         C           -4.914512452545    -1.427181108594    -0.310502263501    12.000000000000
         C           -0.000005978418    -5.650438395580    -0.311841843871    12.000000000000
         C           -4.893020453593     2.825188490353    -0.312303116911    12.000000000000
         C            2.478126023806    -5.653573652455    -0.312191366249    12.000000000000
         C           -3.656798679750     4.972956073475    -0.312374585616    12.000000000000
         C           -4.892999448349    -2.825191875626    -0.311835918853    12.000000000000
         C           -2.478128467575    -5.653566278573    -0.312466553896    12.000000000000
         C           -6.134770472823     0.680548657690    -0.312765480562    12.000000000000
         C           -3.656788802681    -4.972944131537    -0.311315053273    12.000000000000
         C           -6.134765012405    -0.680554024048    -0.311495084139    12.000000000000
         H            5.835288526324     3.369275786388    -0.307933709388     1.007825032230
         H            7.073859203255     1.228217140333    -0.312278285466     1.007825032230
         H            4.600663294682     5.512380693887    -0.312046065239     1.007825032230
         H            5.835283417813    -3.369306165295    -0.316136350470     1.007825032230
         H           -0.000012120798     6.738530565570    -0.315795584757     1.007825032230
         H            7.073861202338    -1.228227051310    -0.311983346438     1.007825032230
         H            2.473313762307     6.740684182828    -0.311729207271     1.007825032230
         H            4.600668521889    -5.512376237742    -0.311510762625     1.007825032230
         H           -2.473318650030     6.740681611040    -0.311427860646     1.007825032230
         H           -0.000010237720    -6.738528285018    -0.307312158886     1.007825032230
         H           -5.835301883836     3.369270841730    -0.307797687240     1.007825032230
         H            2.473307954339    -6.740685482995    -0.311621035824     1.007825032230
         H           -4.600674810700     5.512377918037    -0.311880736915     1.007825032230
         H           -5.835279476327    -3.369289072346    -0.316415656351     1.007825032230
         H           -2.473300316932    -6.740679186706    -0.312070352368     1.007825032230
         H           -7.073857736260     1.228220364274    -0.312362276947     1.007825032230
         H           -4.600673755577    -5.512362778353    -0.311683070648     1.007825032230
         H           -7.073856903901    -1.228220740543    -0.312078202905     1.007825032230

  Charge       = 0
  Multiplicity = 1
  Basis Set: JUN-CC-PVDZ
    Blend: JUN-CC-PVDZ
  Basis Set: (JUN-CC-PVDZ AUX)
    Blend: JUN-CC-PVDZ-JKFIT

    Orbital Energies [Eh]
    ---------------------

    Doubly Occupied:

       1A    -11.260734     2A    -11.260368     3A    -11.260169
       4A    -11.259530     5A    -11.259401     6A    -11.259252
       7A    -11.259003     8A    -11.258961     9A    -11.258898
      10A    -11.258661    11A    -11.258592    12A    -11.258487
      13A    -11.258444    14A    -11.258443    15A    -11.258427
      16A    -11.258402    17A    -11.258381    18A    -11.258370
      19A    -11.258368    20A    -11.258364    21A    -11.258358
      22A    -11.258326    23A    -11.258284    24A    -11.258100
      25A    -11.257260    26A    -11.257212    27A    -11.257187
      28A    -11.257067    29A    -11.257067    30A    -11.256985
      31A    -11.256349    32A    -11.256290    33A    -11.256270
      34A    -11.256179    35A    -11.256166    36A    -11.256126
      37A    -11.252272    38A    -11.252271    39A    -11.252260
      40A    -11.252258    41A    -11.252257    42A    -11.252255
      43A    -11.251358    44A    -11.251357    45A    -11.251351
      46A    -11.251349    47A    -11.251318    48A    -11.251317
      49A    -11.250833    50A    -11.250832    51A    -11.250821
      52A    -11.250819    53A    -11.250817    54A    -11.250816
      55A     -1.243943    56A     -1.219745    57A     -1.219712
      58A     -1.189484    59A     -1.189466    60A     -1.180846
      61A     -1.157519    62A     -1.148919    63A     -1.135398
      64A     -1.135380    65A     -1.113153    66A     -1.113141
      67A     -1.082341    68A     -1.082341    69A     -1.078514
      70A     -1.065945    71A     -1.065940    72A     -1.039339
      73A     -1.024165    74A     -1.021653    75A     -1.021623
      76A     -1.017694    77A     -1.012761    78A     -0.986939
      79A     -0.986890    80A     -0.961828    81A     -0.961784
      82A     -0.894241    83A     -0.894217    84A     -0.887833
      85A     -0.886078    86A     -0.886016    87A     -0.881316
      88A     -0.881271    89A     -0.861844    90A     -0.837390
      91A     -0.818149    92A     -0.816509    93A     -0.812061
      94A     -0.812044    95A     -0.794641    96A     -0.794634
      97A     -0.746537    98A     -0.744771    99A     -0.733318
     100A     -0.733308   101A     -0.732135   102A     -0.732108
     103A     -0.716422   104A     -0.698919   105A     -0.698914
     106A     -0.693511   107A     -0.693505   108A     -0.661177
     109A     -0.652996   110A     -0.651047   111A     -0.650213
     112A     -0.650207   113A     -0.639316   114A     -0.639310
     115A     -0.629639   116A     -0.627447   117A     -0.627421
     118A     -0.606482   119A     -0.605796   120A     -0.601580
     121A     -0.599669   122A     -0.599650   123A     -0.593573
     124A     -0.591101   125A     -0.591093   126A     -0.585254
     127A     -0.576385   128A     -0.576360   129A     -0.567290
     130A     -0.567277   131A     -0.565870   132A     -0.565842
     133A     -0.558624   134A     -0.554789   135A     -0.554787
     136A     -0.538549   137A     -0.538546   138A     -0.538158
     139A     -0.538140   140A     -0.529662   141A     -0.528194
     142A     -0.522810   143A     -0.522810   144A     -0.500457
     145A     -0.495566   146A     -0.493185   147A     -0.487807
     148A     -0.485003   149A     -0.481687   150A     -0.481681
     151A     -0.470376   152A     -0.470316   153A     -0.450919
     154A     -0.450834   155A     -0.439044   156A     -0.439040
     157A     -0.404701   158A     -0.404659   159A     -0.403327
     160A     -0.375408   161A     -0.375400   162A     -0.349094
     163A     -0.337514   164A     -0.336519   165A     -0.336453
     166A     -0.311033   167A     -0.298097   168A     -0.284257
     169A     -0.284210   170A     -0.224858   171A     -0.224795

  @DF-RHF Final Energy: -2055.89462411939758

   => Energetics <=

    Nuclear Repulsion Energy =           6452.5568002797781446
    One-Electron Energy =              -15636.5017954153354367
    Two-Electron Energy =                7128.0503710161583513
    Total Energy =                      -2055.8946241193980313
 Dipole X            :          0.0000455            0.0000112            0.0000567
 Dipole Y            :          0.0001554           -0.0000531            0.0001023
 Dipole Z            :        201.5821111         -201.5786918            0.0034193
 Magnitude           :                                                    0.0034213

    SAPT Results
  --------------------------------------------------------------------------------------------------------
    Electrostatics               -137.01342833 [mEh]     -85.97722431 [kcal/mol]    -359.72870652 [kJ/mol]
      Elst10,r                   -137.01342833 [mEh]     -85.97722431 [kcal/mol]    -359.72870652 [kJ/mol]

    Exchange                      342.10845985 [mEh]     214.67629962 [kcal/mol]     898.20563759 [kJ/mol]
      Exch10                      342.10845985 [mEh]     214.67629962 [kcal/mol]     898.20563759 [kJ/mol]
      Exch10(S^2)                 325.73243444 [mEh]     204.40018853 [kcal/mol]     855.21038880 [kJ/mol]

    Induction                     -54.10577001 [mEh]     -33.95188327 [kcal/mol]    -142.05467959 [kJ/mol]
      Ind20,r                    -221.87662032 [mEh]    -139.22968126 [kcal/mol]    -582.53698640 [kJ/mol]
      Exch-Ind20,r                173.45218254 [mEh]     108.84288779 [kcal/mol]     455.39864253 [kJ/mol]
      delta HF,r (2)               -5.68133223 [mEh]      -3.56508980 [kcal/mol]     -14.91633572 [kJ/mol]

    Dispersion                    -46.39707562 [mEh]     -29.11460451 [kcal/mol]    -121.81550527 [kJ/mol]
      Disp20                      -69.98807005 [mEh]     -43.91817701 [kcal/mol]    -183.75365261 [kJ/mol]
      Exch-Disp20                  23.59099443 [mEh]      14.80357250 [kcal/mol]      61.93814734 [kJ/mol]
      Disp20 (SS)                 -34.99403503 [mEh]     -21.95908851 [kcal/mol]     -91.87682631 [kJ/mol]
      Disp20 (OS)                 -34.99403503 [mEh]     -21.95908851 [kcal/mol]     -91.87682631 [kJ/mol]
      Exch-Disp20 (SS)             11.85003733 [mEh]       7.43601069 [kcal/mol]      31.11226871 [kJ/mol]
      Exch-Disp20 (OS)             11.74095710 [mEh]       7.36756181 [kcal/mol]      30.82587863 [kJ/mol]

  Total HF                        150.98926151 [mEh]      94.74719204 [kcal/mol]     396.42225148 [kJ/mol]
  Total SAPT0                     104.59218589 [mEh]      65.63258753 [kcal/mol]     274.60674621 [kJ/mol]

  Special recipe for scaled SAPT0 (see Manual):
    Electrostatics sSAPT0        -137.01342833 [mEh]     -85.97722431 [kcal/mol]    -359.72870652 [kJ/mol]
    Exchange sSAPT0               342.10845985 [mEh]     214.67629962 [kcal/mol]     898.20563759 [kJ/mol]
    Induction sSAPT0              -26.60786719 [mEh]     -16.69668874 [kcal/mol]     -69.85894569 [kJ/mol]
    Dispersion sSAPT0             -42.65712342 [mEh]     -26.76774907 [kcal/mol]    -111.99626211 [kJ/mol]
  Total sSAPT0                    135.83004091 [mEh]      85.23463749 [kcal/mol]     356.62172327 [kJ/mol]
  --------------------------------------------------------------------------------------------------------

*** Psi4 exiting successfully. Buy a developer a beer!
