                               Psi4 1.9 release

  ==> Input File <==

--------------------------------------------------------------------------
memory 64 GB # how much memory is available ! Depends on the nodes/cores !

molecule dimer {
# monomer A
-1 1    # Charge and multiplicity
B -0.000046  0.000337 4.999994
F -1.153597  0.000048 5.815641
F  1.153661 -0.000581 5.815641
F -0.000019 -1.153637 4.184360
F -0.000019  1.153978 4.184360
--
# monomer B
0 1     # Charge and multiplicity
C   -3.66844126402057      7.80375217008252      0.00190004133558
C   -4.84759871934653      7.13124183134024     -0.00046653359696
C   -4.89495929917518      5.69633040353158     -0.00103944469517
C   -3.65374067877320      4.98073034095895      0.00662099703436
C   -2.40942512149445      7.11398103667468      0.00209438359570
C   -2.42547734410473      5.68112195090346     -0.00491050527438
C   -1.19474401643570      7.78614419430947      0.00356656413763
C   0.03795902893699      7.09942164575698      0.00139585983271
C   0.03033258741920      5.66948955970466     -0.00408752508301
C   -1.20098450790502      4.96927034791531      0.00488220885047
C   1.27795782581485      7.77285944319479      0.00277170839332
C   2.48535808472416      7.08769688523756      0.00049722048857
C   2.48612868491717      5.65477081024076     -0.00644052849921
C   1.25408291964399      4.95607811366431      0.00518741308898
C   3.75171459140595      7.76391215098033      0.00062407186893
C   4.92356605618520      7.07878077698995     -0.00143240883900
C   4.95560727132542      5.64344746336949     -0.00159282164606
C   3.70680153420475      4.94121020833308      0.00349873852374
H   -3.65852113775815      8.89082741913536      0.00358502958574
H   -1.18921332975660      8.87412108735996      0.00753844057883
H   1.28429423888630      8.86083343548850      0.00693053253426
H   3.75354208679975      8.85103527897216      0.00214659618464
H   5.86995870320703      7.61379483465560     -0.00235777588134
H   -5.78823170750226      7.67630221293400     -0.00202638095293
C   -6.09197395869619      4.99326001364347     -0.00291168518608
C   -6.12866148031747      3.58258016879823     -0.00171050815740
C   -3.66457974004527      3.56418217974434     -0.00463560277484
C   -4.89429820469869      2.86108077590057      0.00453338221034
C   -2.43733499489796      2.84761165708481      0.00719617576166
C   -1.20922785759670      3.54788693497833     -0.00648285103018
C   1.24714157216223      3.53468075142962     -0.00729145743546
C   0.01517603956900      2.83311183930540      0.00439272578912
C   2.46764517244071      2.82128997725533      0.00449278391269
C   3.70254947457969      3.52466015442405     -0.00899517692985
C   6.14498038638375      4.92757236613191     -0.00282626685777
C   6.16658835886151      3.51658447594213     -0.00065971342101
C   4.92460995845939      2.80840792535402      0.00587903281610
H   7.08990550964105      5.46688776622306     -0.00658814770723
H   -7.03104175110130      5.54268795285765     -0.00714490013730
C   -7.33969804112295      2.85841153457957     -0.00333767559888
C   -7.36488195805880      1.47032337158330     -0.00157213747140
C   -4.90350460894690      1.44442681216000     -0.00628840166334
C   -6.13225715261081      0.73993935705394      0.00600164231964
C   -3.67687480051673      0.72669714267312      0.00433931473643
C   -2.44565658606518      1.42964113326212     -0.00597039546461
C   -1.22360068130162      0.71532450163492      0.00545886906656
C   0.00763786931376      1.41738314923765      0.00392452278437
C   1.23121980774686      0.70211669058719     -0.01490206287210
C   2.46082110053113      1.40329203612573      0.00460244601878
C   3.68443025419614      0.68719842821222      0.00377365974158
C   4.91870890153864      1.39173456118907     -0.00862816189375
C   7.36980207796101      2.77948220318441     -0.00242013321349
C   7.38016266612146      1.39121750785509     -0.00087345036788
C   6.13979953912259      0.67411862320065      0.00545489144369
H   -8.27919079934664      3.40711804112415     -0.00763522772059
H   8.31511347147953      3.31811809662368     -0.00663070901292
C   -8.59175593758115      0.72483255304480     -0.00123170985383
C   -8.59902460370342     -0.63263980622873      0.00089141472904
C   -6.13981313911873     -0.67413663715361     -0.00609792660607
C   -7.38018411213749     -1.39126618958160      0.00131813493501
C   -4.91868448025621     -1.39175501803000      0.00624257154343
C   -3.68443829568458     -0.68723731573599     -0.00478966852105
C   -2.46081704024768     -1.40334517882457      0.00575341766833
C   -1.23116201232071     -0.70217386488055     -0.00636696112346
C   -0.00756962538737     -1.41741884941102      0.00108956317991
C   1.22364771588843     -0.71527537726392      0.01109518512883
C   2.44567064933149     -1.42964328900682     -0.00065482763106
C   3.67686670284649     -0.72670743155550     -0.00479541202602
C   6.13224884641929     -0.73997883984993     -0.00632338623858
C   4.90351914550401     -1.44445752054090      0.00751768830159
C   8.59901484869081      0.63260386666793     -0.00101133422380
C   8.59174548810050     -0.72485086719319      0.00072504603735
C   7.36486276438985     -1.47033266560598      0.00049486934466
H   -9.52830597181814      1.27684744919284     -0.00270163681798
H   9.54141097460619      1.17457248844457     -0.00206336648518
C   -7.36983790976868     -2.77954514593389      0.00312634335708
C   -4.92459910905015     -2.80843725734101     -0.00460528907921
C   -6.16662249566744     -3.51665219282533      0.00169655107992
C   -3.70251035970491     -3.52468154912026      0.00571878010666
C   -2.46764698511392     -2.82132596280400     -0.00632585824990
C   -0.01513347410770     -2.83314164539971     -0.00604426974092
C   -1.24712184122656     -3.53473217556300      0.00551968366725
C   1.20924506964357     -3.54791467864352      0.00805871345849
C   2.43733602215464     -2.84764173817541     -0.00608104485234
C   4.89430234377080     -2.86112296828604     -0.00526030478103
C   3.66461525504104     -3.56421984553201      0.00761911515957
C   6.12863901474565     -3.58258405771778      0.00096495711699
C   7.33967266469532     -2.85841330737039      0.00248018319869
H   -9.54144911125902     -1.17456346666430      0.00226083090216
H   9.52826186807155     -1.27691907390448      0.00197485379837
H   -8.31516504384864     -3.31814985321231      0.00729857188773
H   8.27915514249207     -3.40714078989363      0.00681973918158
C   -6.14499418870218     -4.92764727278338      0.00302254913999
C   -3.70678334799751     -4.94126171411716     -0.00679841894792
C   -4.95559005800169     -5.64349397349412      0.00116871569699
C   -2.48612132622665     -5.65478557440947      0.00614125209662
C   -1.25405833548005     -4.95612205000132     -0.00503435388927
C   1.20101257386816     -4.96928038819302     -0.00385322963129
C   -0.03033667441341     -5.66952030313900      0.00398997003238
C   3.65375010132847     -4.98074377541453     -0.00309522988330
C   2.42549269587528     -5.68117463552727      0.00628170066869
C   6.09196561781097     -4.99325796338655      0.00325918379042
C   4.89497644461045     -5.69634842095790      0.00202298796027
H   -7.08989238804069     -5.46699984223871      0.00742531082125
H   7.03105520920009     -5.54265853633254      0.00683896355417
C   -4.92354532219813     -7.07882109967734      0.00061394679214
C   -2.48534208823777     -7.08772807792913     -0.00189594564379
C   -3.75168589177895     -7.76394715763627     -0.00170126671874
C   -0.03794895698805     -7.09946487446944     -0.00168022049625
C   -1.27795610040136     -7.77290438466689     -0.00366491325785
C   2.40944432072629     -7.11402201200282     -0.00081701968533
C   1.19474993715296     -7.78618536556242     -0.00296931056689
C   4.84762105249800     -7.13126211057943      0.00168979497423
C   3.66847160587561     -7.80378799294376     -0.00065863938960
H   -5.86994035041618     -7.61383059804164      0.00215798365757
H   5.78824962538815     -7.67633218931421      0.00281691445618
H   -3.75352693944918     -8.85107156923607     -0.00353718114765
H   -1.28430440589466     -8.86087539249706     -0.00809229711623
H   1.18922157469537     -8.87416062058945     -0.00706194725726
H   3.65854661482387     -8.89086063405326     -0.00231318081200

    units angstrom      # Angstroms are the default
    no_reorient         # Geometry fixed, default
    symmetry c1         # C1 symmetry, default
}

set {
    scf_type DF         # Density fitting, faster than exact integrals
    freeze_core True    # Freeze core electrons
    basis jun-cc-pVDZ   # Jun-cc-pVDZ basis set, recommended for sSAPT0 in https://doi.org/10.1063/1.4867135
}

energy('ssapt0')        # Compute sSAPT0 energy, includes also SAPT0
--------------------------------------------------------------------------

  //              Dimer HF             //
    Molecular point group: c1
  Charge       = -1
  Multiplicity = 1
  Basis Set: JUN-CC-PVDZ
    Blend: JUN-CC-PVDZ
  Basis Set: (JUN-CC-PVDZ AUX)
    Blend: JUN-CC-PVDZ-JKFIT
  @DF-RHF Final Energy: -4073.10824335920279
    Total Energy =                      -4073.1082433592018788
 Dipole X            :          0.0004169           -0.0001188            0.0002981
 Dipole Y            :          0.0012908           -0.0002727            0.0010181
 Dipole Z            :         22.2277856          -29.7560959           -7.5283104
 Magnitude           :                                                    7.5283104
  //            Monomer A HF           //
    Molecular point group: c1
  Multiplicity = 1
  Basis Set: JUN-CC-PVDZ
    Blend: JUN-CC-PVDZ
  Basis Set: (JUN-CC-PVDZ AUX)
    Blend: JUN-CC-PVDZ-JKFIT
  @DF-RHF Final Energy:  -422.77209519609079
    Total Energy =                       -422.7720951960907882
  //            Monomer B HF           //
    Molecular point group: c1

    Geometry (in Angstrom), charge = 0, multiplicity = 1:

       Center              X                  Y                   Z               Mass
    ------------   -----------------  -----------------  -----------------  -----------------
      Gh(B)          -0.000050191042     0.000351518223     4.655613296801    11.009305360000
      Gh(F)          -1.153601191042     0.000062518223     5.471260296801    18.998403162730
      Gh(F)           1.153656808958    -0.000566481777     5.471260296801    18.998403162730
      Gh(F)          -0.000023191042    -1.153622481777     3.839979296801    18.998403162730
      Gh(F)          -0.000023191042     1.153992518223     3.839979296801    18.998403162730
         C           -3.668445455062     7.803766688305    -0.342480661863    12.000000000000
         C           -4.847602910388     7.131256349563    -0.344847236796    12.000000000000
         C           -4.894963490217     5.696344921754    -0.345420147894    12.000000000000
         C           -3.653744869815     4.980744859182    -0.337759706165    12.000000000000
         C           -2.409429312536     7.113995554897    -0.342286319603    12.000000000000
         C           -2.425481535146     5.681136469126    -0.349291208473    12.000000000000
         C           -1.194748207477     7.786158712532    -0.340814139061    12.000000000000
         C            0.037954837895     7.099436163980    -0.342984843366    12.000000000000
         C            0.030328396378     5.669504077927    -0.348468228282    12.000000000000
         C           -1.200988698947     4.969284866138    -0.339498494349    12.000000000000
         C            1.277953634773     7.772873961417    -0.341608994806    12.000000000000
         C            2.485353893683     7.087711403460    -0.343883482710    12.000000000000
         C            2.486124493876     5.654785328463    -0.350821231698    12.000000000000
         C            1.254078728602     4.956092631887    -0.339193290110    12.000000000000
         C            3.751710400364     7.763926669203    -0.343756631330    12.000000000000
         C            4.923561865144     7.078795295213    -0.345813112038    12.000000000000
         C            4.955603080284     5.643461981592    -0.345973524845    12.000000000000
         C            3.706797343163     4.941224726556    -0.340881964675    12.000000000000
         H           -3.658525328800     8.890841937358    -0.340795673613     1.007825032230
         H           -1.189217520798     8.874135605583    -0.336842262620     1.007825032230
         H            1.284290047845     8.860847953711    -0.337450170665     1.007825032230
         H            3.753537895758     8.851049797195    -0.342234107014     1.007825032230
         H            5.869954512165     7.613809352878    -0.346738479080     1.007825032230
         H           -5.788235898544     7.676316731157    -0.346407084152     1.007825032230
         C           -6.091978149738     4.993274531866    -0.347292388385    12.000000000000
         C           -6.128665671359     3.582594687021    -0.346091211356    12.000000000000
         C           -3.664583931087     3.564196697967    -0.349016305974    12.000000000000
         C           -4.894302395740     2.861095294123    -0.339847320989    12.000000000000
         C           -2.437339185940     2.847626175307    -0.337184527437    12.000000000000
         C           -1.209232048638     3.547901453201    -0.350863554229    12.000000000000
         C            1.247137381121     3.534695269652    -0.351672160634    12.000000000000
         C            0.015171848527     2.833126357528    -0.339987977410    12.000000000000
         C            2.467640981399     2.821304495478    -0.339887919286    12.000000000000
         C            3.702545283538     3.524674672647    -0.353375880129    12.000000000000
         C            6.144976195342     4.927586884354    -0.347206970057    12.000000000000
         C            6.166584167820     3.516598994165    -0.345040416620    12.000000000000
         C            4.924605767418     2.808422443577    -0.338501670383    12.000000000000
         H            7.089901318599     5.466902284446    -0.350968850906     1.007825032230
         H           -7.031045942143     5.542702471080    -0.351525603336     1.007825032230
         C           -7.339702232165     2.858426052802    -0.347718378798    12.000000000000
         C           -7.364886149100     1.470337889806    -0.345952840670    12.000000000000
         C           -4.903508799989     1.444441330383    -0.350669104862    12.000000000000
         C           -6.132261343652     0.739953875277    -0.338379060879    12.000000000000
         C           -3.676878991558     0.726711660896    -0.340041388463    12.000000000000
         C           -2.445660777107     1.429655651485    -0.350351098664    12.000000000000
         C           -1.223604872343     0.715339019858    -0.338921834132    12.000000000000
         C            0.007633678272     1.417397667460    -0.340456180415    12.000000000000
         C            1.231215616705     0.702131208810    -0.359282766071    12.000000000000
         C            2.460816909489     1.403306554348    -0.339778257180    12.000000000000
         C            3.684426063155     0.687212946435    -0.340607043457    12.000000000000
         C            4.918704710497     1.391749079412    -0.353008865093    12.000000000000
         C            7.369797886919     2.779496721407    -0.346800836413    12.000000000000
         C            7.380158475080     1.391232026078    -0.345254153567    12.000000000000
         C            6.139795348081     0.674133141423    -0.338925811755    12.000000000000
         H           -8.279194990388     3.407132559347    -0.352015930920     1.007825032230
         H            8.315109280438     3.318132614846    -0.351011412212     1.007825032230
         C           -8.591760128623     0.724847071267    -0.345612413053    12.000000000000
         C           -8.599028794745    -0.632625288006    -0.343489288470    12.000000000000
         C           -6.139817330160    -0.674122118931    -0.350478629805    12.000000000000
         C           -7.380188303179    -1.391251671359    -0.343062568264    12.000000000000
         C           -4.918688671298    -1.391740499807    -0.338138131656    12.000000000000
         C           -3.684442486726    -0.687222797513    -0.349170371720    12.000000000000
         C           -2.460821231289    -1.403330660602    -0.338627285531    12.000000000000
         C           -1.231166203362    -0.702159346658    -0.350747664322    12.000000000000
         C           -0.007573816429    -1.417404331188    -0.343291140019    12.000000000000
         C            1.223643524847    -0.715260859041    -0.333285518070    12.000000000000
         C            2.445666458290    -1.429628770784    -0.345035530830    12.000000000000
         C            3.676862511805    -0.726692913333    -0.349176115225    12.000000000000
         C            6.132244655378    -0.739964321627    -0.350704089438    12.000000000000
         C            4.903514954462    -1.444443002318    -0.336863014897    12.000000000000
         C            8.599010657649     0.632618384891    -0.345392037423    12.000000000000
         C            8.591741297059    -0.724836348971    -0.343655657162    12.000000000000
         C            7.364858573348    -1.470318147383    -0.343885833854    12.000000000000
         H           -9.528310162860     1.276861967415    -0.347082340017     1.007825032230
         H            9.541406783565     1.174587006667    -0.346444069684     1.007825032230
         C           -7.369842100810    -2.779530627711    -0.341254359842    12.000000000000
         C           -4.924603300092    -2.808422739118    -0.348985992278    12.000000000000
         C           -6.166626686709    -3.516637674603    -0.342684152119    12.000000000000
         C           -3.702514550747    -3.524667030898    -0.338661923092    12.000000000000
         C           -2.467651176156    -2.821311444581    -0.350706561449    12.000000000000
         C           -0.015137665149    -2.833127127177    -0.350424972940    12.000000000000
         C           -1.247126032268    -3.534717657340    -0.338861019532    12.000000000000
         C            1.209240878602    -3.547900160421    -0.336321989741    12.000000000000
         C            2.437331831113    -2.847627219953    -0.350461748051    12.000000000000
         C            4.894298152729    -2.861108450063    -0.349641007980    12.000000000000
         C            3.664611063999    -3.564205327309    -0.336761588039    12.000000000000
         C            6.128634823704    -3.582569539495    -0.343415746082    12.000000000000
         C            7.339668473654    -2.858398789148    -0.341900520000    12.000000000000
         H           -9.541453302301    -1.174548948442    -0.342119872297     1.007825032230
         H            9.528257677030    -1.276904555682    -0.342405849401     1.007825032230
         H           -8.315169234890    -3.318135334990    -0.337082131311     1.007825032230
         H            8.279150951450    -3.407126271671    -0.337560964017     1.007825032230
         C           -6.144998379744    -4.927632754561    -0.341358154059    12.000000000000
         C           -3.706787539039    -4.941247195895    -0.351179122147    12.000000000000
         C           -4.955594249043    -5.643479455272    -0.343211987502    12.000000000000
         C           -2.486125517268    -5.654771056187    -0.338239451102    12.000000000000
         C           -1.254062526522    -4.956107531779    -0.349415057088    12.000000000000
         C            1.201008382827    -4.969265869970    -0.348233932830    12.000000000000
         C           -0.030340865455    -5.669505784916    -0.340390733167    12.000000000000
         C            3.653745910287    -4.980729257192    -0.347475933082    12.000000000000
         C            2.425488504834    -5.681160117305    -0.338099002530    12.000000000000
         C            6.091961426769    -4.993243445164    -0.341121519409    12.000000000000
         C            4.894972253569    -5.696333902735    -0.342357715239    12.000000000000
         H           -7.089896579082    -5.466985324016    -0.336955392378     1.007825032230
         H            7.031051018158    -5.542644018110    -0.337541739645     1.007825032230
         C           -4.923549513240    -7.078806581455    -0.343766756407    12.000000000000
         C           -2.485346279279    -7.087713559707    -0.346276648843    12.000000000000
         C           -3.751690082821    -7.763932639414    -0.346081969918    12.000000000000
         C           -0.037953148030    -7.099450356247    -0.346060923695    12.000000000000
         C           -1.277960291443    -7.772889866444    -0.348045616457    12.000000000000
         C            2.409440129685    -7.114007493780    -0.345197722884    12.000000000000
         C            1.194745746111    -7.786170847340    -0.347350013766    12.000000000000
         C            4.847616861456    -7.131247592357    -0.342690908225    12.000000000000
         C            3.668467414834    -7.803773474721    -0.345039342589    12.000000000000
         H           -5.869944541458    -7.613816079819    -0.342222719541     1.007825032230
         H            5.788245434347    -7.676317671092    -0.341563788743     1.007825032230
         H           -3.753531130491    -8.851057051013    -0.347917884347     1.007825032230
         H           -1.284308596936    -8.860860874274    -0.352473000315     1.007825032230
         H            1.189217383654    -8.874146102367    -0.351442650456     1.007825032230
         H            3.658542423782    -8.890846115831    -0.346693884011     1.007825032230

  Charge       = 0
  Multiplicity = 1
  Basis Set: JUN-CC-PVDZ
    Blend: JUN-CC-PVDZ
  Basis Set: (JUN-CC-PVDZ AUX)
    Blend: JUN-CC-PVDZ-JKFIT

    Orbital Energies [Eh]
    ---------------------

    Doubly Occupied:

       1A    -11.264046     2A    -11.263735     3A    -11.263688
       4A    -11.263357     5A    -11.263324     6A    -11.263302
       7A    -11.263151     8A    -11.263145     9A    -11.263120
      10A    -11.262941    11A    -11.262798    12A    -11.262789
      13A    -11.262313    14A    -11.262304    15A    -11.262258
      16A    -11.262245    17A    -11.262176    18A    -11.262155
      19A    -11.262112    20A    -11.262077    21A    -11.262066
      22A    -11.261945    23A    -11.261922    24A    -11.261800
      25A    -11.261787    26A    -11.261775    27A    -11.261763
      28A    -11.261726    29A    -11.261713    30A    -11.261631
      31A    -11.261608    32A    -11.261603    33A    -11.261579
      34A    -11.261574    35A    -11.261554    36A    -11.261542
      37A    -11.261376    38A    -11.261367    39A    -11.261360
      40A    -11.261353    41A    -11.261350    42A    -11.261342
      43A    -11.261333    44A    -11.261316    45A    -11.261313
      46A    -11.261288    47A    -11.261286    48A    -11.261281
      49A    -11.261112    50A    -11.261080    51A    -11.261077
      52A    -11.261003    53A    -11.260991    54A    -11.260931
      55A    -11.259970    56A    -11.259957    57A    -11.259953
      58A    -11.259926    59A    -11.259921    60A    -11.259906
      61A    -11.259343    62A    -11.259318    63A    -11.259314
      64A    -11.259263    65A    -11.259259    66A    -11.259231
      67A    -11.258973    68A    -11.258957    69A    -11.258952
      70A    -11.258927    71A    -11.258922    72A    -11.258911
      73A    -11.254560    74A    -11.254560    75A    -11.254558
      76A    -11.254555    77A    -11.254550    78A    -11.254549
      79A    -11.253701    80A    -11.253699    81A    -11.253696
      82A    -11.253694    83A    -11.253694    84A    -11.253689
      85A    -11.253617    86A    -11.253615    87A    -11.253611
      88A    -11.253610    89A    -11.253609    90A    -11.253604
      91A    -11.253088    92A    -11.253087    93A    -11.253087
      94A    -11.253083    95A    -11.253078    96A    -11.253077
      97A     -1.254021    98A     -1.239074    99A     -1.239059
     100A     -1.220527   101A     -1.220521   102A     -1.215506
     103A     -1.201097   104A     -1.195664   105A     -1.188213
     106A     -1.188202   107A     -1.173821   108A     -1.173815
     109A     -1.155696   110A     -1.155693   111A     -1.152781
     112A     -1.144775   113A     -1.144772   114A     -1.128632
     115A     -1.114781   116A     -1.113214   117A     -1.112543
     118A     -1.112537   119A     -1.111669   120A     -1.088494
     121A     -1.088474   122A     -1.077012   123A     -1.077010
     124A     -1.067678   125A     -1.067652   126A     -1.065036
     127A     -1.046861   128A     -1.046853   129A     -1.040543
     130A     -1.038786   131A     -1.038784   132A     -1.025307
     133A     -1.021455   134A     -1.021410   135A     -1.007236
     136A     -1.006876   137A     -1.003851   138A     -1.000555
     139A     -1.000506   140A     -0.991123   141A     -0.971050
     142A     -0.971004   143A     -0.955936   144A     -0.955881
     145A     -0.905665   146A     -0.905621   147A     -0.905597
     148A     -0.905557   149A     -0.904408   150A     -0.892438
     151A     -0.892386   152A     -0.890434   153A     -0.890370
     154A     -0.889521   155A     -0.872268   156A     -0.869098
     157A     -0.851595   158A     -0.847933   159A     -0.847911
     160A     -0.845664   161A     -0.843084   162A     -0.834624
     163A     -0.834610   164A     -0.828163   165A     -0.828162
     166A     -0.784607   167A     -0.784595   168A     -0.783724
     169A     -0.783692   170A     -0.782347   171A     -0.782331
     172A     -0.782099   173A     -0.767051   174A     -0.760861
     175A     -0.750638   176A     -0.733535   177A     -0.727127
     178A     -0.727118   179A     -0.725145   180A     -0.724596
     181A     -0.724583   182A     -0.718557   183A     -0.713836
     184A     -0.713830   185A     -0.699628   186A     -0.699622
     187A     -0.686189   188A     -0.686009   189A     -0.686007
     190A     -0.682231   191A     -0.682216   192A     -0.678829
     193A     -0.653678   194A     -0.650926   195A     -0.650898
     196A     -0.649878   197A     -0.649860   198A     -0.649616
     199A     -0.640987   200A     -0.640973   201A     -0.640141
     202A     -0.639211   203A     -0.636077   204A     -0.636056
     205A     -0.629200   206A     -0.617744   207A     -0.615352
     208A     -0.615334   209A     -0.608856   210A     -0.608849
     211A     -0.599169   212A     -0.599102   213A     -0.598799
     214A     -0.598677   215A     -0.598642   216A     -0.598098
     217A     -0.595117   218A     -0.595105   219A     -0.594776
     220A     -0.594302   221A     -0.592012   222A     -0.592009
     223A     -0.587458   224A     -0.577836   225A     -0.577827
     226A     -0.575692   227A     -0.575690   228A     -0.573434
     229A     -0.569601   230A     -0.568198   231A     -0.568180
     232A     -0.566811   233A     -0.566795   234A     -0.560954
     235A     -0.558774   236A     -0.558760   237A     -0.558469
     238A     -0.554423   239A     -0.550586   240A     -0.547515
     241A     -0.544297   242A     -0.535070   243A     -0.534968
     244A     -0.533587   245A     -0.533563   246A     -0.528125
     247A     -0.528111   248A     -0.527858   249A     -0.517220
     250A     -0.517187   251A     -0.515384   252A     -0.515378
     253A     -0.509691   254A     -0.509673   255A     -0.498079
     256A     -0.496503   257A     -0.496476   258A     -0.493810
     259A     -0.493792   260A     -0.489461   261A     -0.481499
     262A     -0.477450   263A     -0.477444   264A     -0.474045
     265A     -0.469500   266A     -0.466581   267A     -0.466575
     268A     -0.458829   269A     -0.446754   270A     -0.446691
     271A     -0.441057   272A     -0.440793   273A     -0.440774
     274A     -0.434716   275A     -0.433935   276A     -0.407401
     277A     -0.407381   278A     -0.386435   279A     -0.386385
     280A     -0.385759   281A     -0.385757   282A     -0.383782
     283A     -0.354349   284A     -0.354335   285A     -0.350689
     286A     -0.338117   287A     -0.335635   288A     -0.335537
     289A     -0.332741   290A     -0.332733   291A     -0.307104
     292A     -0.301965   293A     -0.301913   294A     -0.300870
     295A     -0.286199   296A     -0.256492   297A     -0.253533
     298A     -0.253469   299A     -0.204287   300A     -0.204202

  @DF-RHF Final Energy: -3650.33888144276534

   => Energetics <=

    Nuclear Repulsion Energy =          15611.4211649754324753
    One-Electron Energy =              -36072.1160035730499658
    Two-Electron Energy =               16810.3559571548539679
    Total Energy =                      -3650.3388814427635225
 Dipole X            :         -0.0006801            0.0001983           -0.0004818
 Dipole Y            :          0.0011243           -0.0013163           -0.0001920
 Dipole Z            :        390.4619064         -390.4677353           -0.0058288
 Magnitude           :                                                    0.0058518

    SAPT Results
  --------------------------------------------------------------------------------------------------------
    Electrostatics                 11.08479550 [mEh]       6.95581419 [kcal/mol]      29.10312657 [kJ/mol]
      Elst10,r                     11.08479550 [mEh]       6.95581419 [kcal/mol]      29.10312657 [kJ/mol]

    Exchange                        0.12511541 [mEh]       0.07851110 [kcal/mol]       0.32849046 [kJ/mol]
      Exch10                        0.12511541 [mEh]       0.07851110 [kcal/mol]       0.32849046 [kJ/mol]
      Exch10(S^2)                   0.12511803 [mEh]       0.07851275 [kcal/mol]       0.32849735 [kJ/mol]

    Induction                      -8.47663125 [mEh]      -5.31916642 [kcal/mol]     -22.25539229 [kJ/mol]
      Ind20,r                      -8.55343898 [mEh]      -5.36736399 [kcal/mol]     -22.45705094 [kJ/mol]
      Exch-Ind20,r                  0.02642190 [mEh]       0.01657999 [kcal/mol]       0.06937069 [kJ/mol]
      delta HF,r (2)                0.05038583 [mEh]       0.03161758 [kcal/mol]       0.13228797 [kJ/mol]

    Dispersion                     -2.46477906 [mEh]      -1.54667221 [kcal/mol]      -6.47127654 [kJ/mol]
      Disp20                       -2.50142888 [mEh]      -1.56967032 [kcal/mol]      -6.56750063 [kJ/mol]
      Exch-Disp20                   0.03664982 [mEh]       0.02299811 [kcal/mol]       0.09622409 [kJ/mol]
      Disp20 (SS)                  -1.25071444 [mEh]      -0.78483516 [kcal/mol]      -3.28375031 [kJ/mol]
      Disp20 (OS)                  -1.25071444 [mEh]      -0.78483516 [kcal/mol]      -3.28375031 [kJ/mol]
      Exch-Disp20 (SS)              0.02533535 [mEh]       0.01589817 [kcal/mol]       0.06651796 [kJ/mol]
      Exch-Disp20 (OS)              0.01131447 [mEh]       0.00709994 [kcal/mol]       0.02970613 [kJ/mol]

  Total HF                          2.73327965 [mEh]       1.71515888 [kcal/mol]       7.17622474 [kJ/mol]
  Total SAPT0                       0.26850059 [mEh]       0.16848666 [kcal/mol]       0.70494821 [kJ/mol]

  Special recipe for scaled SAPT0 (see Manual):
    Electrostatics sSAPT0          11.08479550 [mEh]       6.95581419 [kcal/mol]      29.10312657 [kJ/mol]
    Exchange sSAPT0                 0.12511541 [mEh]       0.07851110 [kcal/mol]       0.32849046 [kJ/mol]
    Induction sSAPT0               -8.47663291 [mEh]      -5.31916746 [kcal/mol]     -22.25539665 [kJ/mol]
    Dispersion sSAPT0              -2.46478137 [mEh]      -1.54667366 [kcal/mol]      -6.47128259 [kJ/mol]
  Total sSAPT0                      0.26849662 [mEh]       0.16848417 [kcal/mol]       0.70493779 [kJ/mol]
  --------------------------------------------------------------------------------------------------------

*** Psi4 exiting successfully. Buy a developer a beer!
