                               Psi4 1.9 release

  ==> Input File <==

--------------------------------------------------------------------------
memory 48 GB # how much memory is available ! Depends on the nodes/cores !

molecule dimer {
# monomer A
+1 1    # Charge and multiplicity
C  0.680067 -0.008042 -4.715929
C -0.680504 -0.006014 -4.715545
N -1.085635 -0.005016 -3.397221
C  0.000108 -0.001740 -2.615820
C -2.477365  0.044390 -2.929242
N  1.085222 -0.005016 -3.397221
H  1.385146 -0.015870 -5.533368
H -1.385302 -0.006204 -5.533214
H -0.000009  0.000007 -1.534731
C  2.478117 -0.021908 -2.932123
H  2.490592  0.005437 -1.841870
H  2.967028 -0.935354 -3.279299
H  3.001428  0.853575 -3.323595
H -2.857359  1.066461 -3.009201
H -3.082679 -0.625694 -3.542306
H -2.518128 -0.282594 -1.889294
--
# monomer B
0 1     # Charge and multiplicity
C   1.22531237526482      0.70753866091955      0.00613762728373
C   1.22532433589282     -0.70753852257020     -0.00619318228664
C   -0.00000567409046      1.41496628609039     -0.00672680580738
C   2.45644923379077      1.41832825917820      0.00902448468363
C   0.00001130712078     -1.41497612663474      0.00347275151708
C   -1.22530046906674      0.70754574598412      0.00838914760619
C   2.45643823516184     -1.41832293188077     -0.00843833914343
C   -0.00000085313587      2.83680140328112     -0.00913035594137
C   3.68182717731192      0.70931832800114     -0.00808954934571
C   2.45512052870677      2.83422403348893     -0.00819210630633
C   3.68182158506039     -0.70933346742900      0.00798293467272
C   -1.22531311884624     -0.70752714354401     -0.00512042085974
C   1.22670006104402      3.54346985599427      0.00816696660346
C   0.00000526469929     -2.83678176723568      0.00832091913869
C   -2.45643555300670      1.41831729028492      0.00842454345199
C   2.45512389762097     -2.83422965658853      0.00783102630520
C   -1.22671388474763      3.54346943575023      0.00827029982280
C   4.91451777504333      1.42717324448953     -0.00160886631602
C   3.69315067131765      3.54279566454522     -0.00155906667985
C   -2.45643712022637     -1.41831290883911     -0.00846337726810
C   1.22670532178455     -3.54347386990643     -0.00780316414624
C   -2.45512491866593      2.83421703463423     -0.00818572995999
C   4.91452486062398     -1.42718653794377      0.00136387641845
C   1.22142509354026      4.97013443726031      0.00150231067809
C   4.89300870916237      2.82518837202648     -0.00039219795739
C   -1.22669652864725     -3.54347062507680     -0.00753595973677
C   -3.68181849668397      0.70932533873199     -0.00807686886569
C   3.69314758099218     -3.54280096939050      0.00148176697923
C   -1.22143177215231      4.97012866986289      0.00168580605083
C   6.13477145276790      0.68054831910577     -0.00083909176631
C   3.65678936045204      4.97295361556775     -0.00065042889723
C   -2.45512642789169     -2.83421472106065      0.00758666850712
C   -3.68181869921921     -0.70932533146830      0.00810055625144
C   4.89301309775526     -2.82519973363176      0.00021895393805
C   -0.00000059327114      5.65044773803267      0.00045449734393
C   6.13477559217374     -0.68055448207492      0.00042622874941
C   2.47813196269732      5.65357712333155      0.00063835075260
C   1.22142288457925     -4.97012668293268     -0.00129718634452
C   -3.69316190412301      3.54279732619245     -0.00139355922051
C   -1.22142804110313     -4.97011793159564     -0.00140994817719
C   -4.91452132810043      1.42717581899491     -0.00153192130862
C   3.65678749952045     -4.97295485423912      0.00080007163680
C   -2.47813805026426      5.65357479452875      0.00092287576113
C   -3.69314125872231     -3.54278984697859      0.00136564082345
C   -4.91451200321153     -1.42718062802730      0.00139857359209
C   -0.00000552908399     -5.65043791501335      0.00005899322272
C   -4.89302000425900      2.82518897091939     -0.00040227981744
C   2.47812647313991     -5.65357317188818     -0.00029052915548
C   -3.65679823041642      4.97295655404175     -0.00047374852278
C   -4.89299899901461     -2.82519139505969      0.00006491824035
C   -2.47812801824129     -5.65356579800621     -0.00056571680280
C   -6.13477002348955      0.68054913825639     -0.00086464346868
C   -3.65678835334731     -4.97294365097028      0.00058578382008
C   -6.13476456307132     -0.68055354348201      0.00040575295444
H   5.83528897565761      3.36927626695423      0.00396712770529
H   7.07385965258860      1.22821762089947     -0.00037744837300
H   4.60066374401555      5.51238117445323     -0.00014522814529
H   5.83528386714679     -3.36930568472863     -0.00423551337640
H   -0.00001167146422      6.73853104613662     -0.00389474766392
H   7.07386165167227     -1.22822657074368     -0.00008250934481
H   2.47331421164041      6.74068466339473      0.00017162982210
H   4.60066897122302     -5.51237575717576      0.00039007446835
H   -2.47331820069565      6.74068209160650      0.00047297644710
H   -0.00000978838621     -6.73852780445195      0.00458867820736
H   -5.83530143450167      3.36927132229595      0.00410314985360
H   2.47330840367253     -6.74068500242887      0.00027980126949
H   -4.60067436136587      5.51237839860371      0.00002010017831
H   -5.83527902699321     -3.36928859177951     -0.00451481925734
H   -2.47329986759855     -6.74067870613986     -0.00016951527498
H   -7.07385728692578      1.22822084484047     -0.00046143985387
H   -4.60067330624313     -5.51236229778631      0.00021776644566
H   -7.07385645456741     -1.22822025997701     -0.00017736581114

    units angstrom      # Angstroms are the default
    no_reorient         # Geometry fixed, default
    symmetry c1         # C1 symmetry, default
}

set {
    scf_type DF         # Density fitting, faster than exact integrals
    freeze_core True    # Freeze core electrons
    basis jun-cc-pVDZ   # Jun-cc-pVDZ basis set, recommended for sSAPT0 in https://doi.org/10.1063/1.4867135
}

energy('ssapt0')        # Compute sSAPT0 energy, includes also SAPT0
--------------------------------------------------------------------------

  //              Dimer HF             //
    Molecular point group: c1
  Charge       = 1
  Multiplicity = 1
  Basis Set: JUN-CC-PVDZ
    Blend: JUN-CC-PVDZ
  Basis Set: (JUN-CC-PVDZ AUX)
    Blend: JUN-CC-PVDZ-JKFIT
  @DF-RHF Final Energy: -2359.15334125039772
    Total Energy =                      -2359.1533412503977161
 Dipole X            :         -0.0036212            0.0006313           -0.0029899
 Dipole Y            :         -0.0618908            0.0560211           -0.0058697
 Dipole Z            :         13.0440734          -16.3575994           -3.3135259
 Magnitude           :                                                    3.3135325
  //            Monomer A HF           //
    Molecular point group: c1
  Multiplicity = 1
  Basis Set: JUN-CC-PVDZ
    Blend: JUN-CC-PVDZ
  Basis Set: (JUN-CC-PVDZ AUX)
    Blend: JUN-CC-PVDZ-JKFIT
  @DF-RHF Final Energy:  -303.29896288878751
    Total Energy =                       -303.2989628887875142
  //            Monomer B HF           //
    Molecular point group: c1

    Geometry (in Angstrom), charge = 0, multiplicity = 1:

       Center              X                  Y                   Z               Mass
    ------------   -----------------  -----------------  -----------------  -----------------
      Gh(C)           0.680066520158    -0.008042372515    -4.270752744872    12.000000000000
      Gh(C)          -0.680504479842    -0.006014372515    -4.270368744872    12.000000000000
      Gh(N)          -1.085635479842    -0.005016372515    -2.952044744872    14.003074004430
      Gh(C)           0.000107520158    -0.001740372515    -2.170643744872    12.000000000000
      Gh(C)          -2.477365479842     0.044389627485    -2.484065744872    12.000000000000
      Gh(N)           1.085221520158    -0.005016372515    -2.952044744872    14.003074004430
      Gh(H)           1.385145520158    -0.015870372515    -5.088191744872     1.007825032230
      Gh(H)          -1.385302479842    -0.006204372515    -5.088037744872     1.007825032230
      Gh(H)          -0.000009479842     0.000006627485    -1.089554744872     1.007825032230
      Gh(C)           2.478116520158    -0.021908372515    -2.486946744872    12.000000000000
      Gh(H)           2.490591520158     0.005436627485    -1.396693744872     1.007825032230
      Gh(H)           2.967027520158    -0.935354372515    -2.834122744872     1.007825032230
      Gh(H)           3.001427520158     0.853574627485    -2.878418744872     1.007825032230
      Gh(H)          -2.857359479842     1.066460627485    -2.564024744872     1.007825032230
      Gh(H)          -3.082679479842    -0.625694372515    -3.097129744872     1.007825032230
      Gh(H)          -2.518128479842    -0.282594372515    -1.444117744872     1.007825032230
         C            1.225311895423     0.707538288405     0.451313882412    12.000000000000
         C            1.225323856051    -0.707538895085     0.438983072841    12.000000000000
         C           -0.000006153932     1.414965913575     0.438449449320    12.000000000000
         C            2.456448753949     1.418327886663     0.454200739811    12.000000000000
         C            0.000010827279    -1.414976499150     0.448649006645    12.000000000000
         C           -1.225300948908     0.707545373469     0.453565402734    12.000000000000
         C            2.456437755320    -1.418323304396     0.436737915984    12.000000000000
         C           -0.000001332978     2.836801030766     0.436045899186    12.000000000000
         C            3.681826697470     0.709317955486     0.437086705782    12.000000000000
         C            2.455120048865     2.834223660974     0.436984148821    12.000000000000
         C            3.681821105219    -0.709333839944     0.453159189801    12.000000000000
         C           -1.225313598688    -0.707527516059     0.440055834268    12.000000000000
         C            1.226699581202     3.543469483479     0.453343221731    12.000000000000
         C            0.000004784858    -2.836782139751     0.453497174266    12.000000000000
         C           -2.456436032848     1.418316917770     0.453600798580    12.000000000000
         C            2.455123417779    -2.834230029103     0.453007281433    12.000000000000
         C           -1.226714364589     3.543469063235     0.453446554951    12.000000000000
         C            4.914517295202     1.427172871975     0.443567388812    12.000000000000
         C            3.693150191476     3.542795292030     0.443617188448    12.000000000000
         C           -2.456437600068    -1.418313281354     0.436712877860    12.000000000000
         C            1.226704841943    -3.543474242421     0.437373090982    12.000000000000
         C           -2.455125398508     2.834216662119     0.436990525168    12.000000000000
         C            4.914524380782    -1.427186910459     0.446540131546    12.000000000000
         C            1.221424613699     4.970134064745     0.446678565806    12.000000000000
         C            4.893008229321     2.825187999512     0.444784057170    12.000000000000
         C           -1.226697008489    -3.543470997592     0.437640295391    12.000000000000
         C           -3.681818976526     0.709324966217     0.437099386262    12.000000000000
         C            3.693147101150    -3.542801341905     0.446658022107    12.000000000000
         C           -1.221432251994     4.970128297348     0.446862061179    12.000000000000
         C            6.134770972926     0.680547946591     0.444337163361    12.000000000000
         C            3.656788880610     4.972953243053     0.444525826231    12.000000000000
         C           -2.455126907733    -2.834215093576     0.452762923635    12.000000000000
         C           -3.681819179061    -0.709325703983     0.453276811379    12.000000000000
         C            4.893012617914    -2.825200106147     0.445395209066    12.000000000000
         C           -0.000001073113     5.650447365518     0.445630752472    12.000000000000
         C            6.134775112332    -0.680554854590     0.445602483877    12.000000000000
         C            2.478131482856     5.653576750817     0.445814605880    12.000000000000
         C            1.221422404738    -4.970127055448     0.443879068783    12.000000000000
         C           -3.693162383965     3.542796953677     0.443782695907    12.000000000000
         C           -1.221428520945    -4.970118304111     0.443766306951    12.000000000000
         C           -4.914521807942     1.427175446480     0.443644333819    12.000000000000
         C            3.656787019679    -4.972955226754     0.445976326765    12.000000000000
         C           -2.478138530106     5.653574422014     0.446099130889    12.000000000000
         C           -3.693141738564    -3.542790219494     0.446541895951    12.000000000000
         C           -4.914512483053    -1.427181000542     0.446574828720    12.000000000000
         C           -0.000006008926    -5.650438287528     0.445235248351    12.000000000000
         C           -4.893020484101     2.825188598404     0.444773975310    12.000000000000
         C            2.478125993298    -5.653573544403     0.444885725972    12.000000000000
         C           -3.656798710258     4.972956181527     0.444702506605    12.000000000000
         C           -4.892999478856    -2.825191767575     0.445241173368    12.000000000000
         C           -2.478128498083    -5.653566170521     0.444610538325    12.000000000000
         C           -6.134770503331     0.680548765741     0.444311611659    12.000000000000
         C           -3.656788833189    -4.972944023485     0.445762038948    12.000000000000
         C           -6.134765042913    -0.680553915997     0.445582008082    12.000000000000
         H            5.835288495816     3.369275894439     0.449143382833     1.007825032230
         H            7.073859172747     1.228217248385     0.444798806755     1.007825032230
         H            4.600663264174     5.512380801938     0.445031026982     1.007825032230
         H            5.835283387305    -3.369306057244     0.440940741751     1.007825032230
         H           -0.000012151306     6.738530673622     0.441281507464     1.007825032230
         H            7.073861171831    -1.228226943259     0.445093745783     1.007825032230
         H            2.473313731799     6.740684290880     0.445347884950     1.007825032230
         H            4.600668491381    -5.512376129691     0.445566329596     1.007825032230
         H           -2.473318680537     6.740681719092     0.445649231575     1.007825032230
         H           -0.000010268228    -6.738528176967     0.449764933335     1.007825032230
         H           -5.835301914343     3.369270949781     0.449279404981     1.007825032230
         H            2.473307923831    -6.740685374944     0.445456056397     1.007825032230
         H           -4.600674841208     5.512378026089     0.445196355306     1.007825032230
         H           -5.835279506835    -3.369288964294     0.440661435870     1.007825032230
         H           -2.473300347440    -6.740679078655     0.445006739853     1.007825032230
         H           -7.073857766768     1.228220472326     0.444714815274     1.007825032230
         H           -4.600673786085    -5.512362670301     0.445394021573     1.007825032230
         H           -7.073856934409    -1.228220632492     0.444998889317     1.007825032230

  Charge       = 0
  Multiplicity = 1
  Basis Set: JUN-CC-PVDZ
    Blend: JUN-CC-PVDZ
  Basis Set: (JUN-CC-PVDZ AUX)
    Blend: JUN-CC-PVDZ-JKFIT

    Orbital Energies [Eh]
    ---------------------

    Doubly Occupied:

       1A    -11.260568     2A    -11.260171     3A    -11.260061
       4A    -11.259429     5A    -11.259327     6A    -11.259196
       7A    -11.258967     8A    -11.258932     9A    -11.258839
      10A    -11.258558    11A    -11.258527    12A    -11.258432
      13A    -11.258372    14A    -11.258369    15A    -11.258362
      16A    -11.258339    17A    -11.258315    18A    -11.258304
      19A    -11.258299    20A    -11.258286    21A    -11.258280
      22A    -11.258246    23A    -11.258200    24A    -11.257980
      25A    -11.257261    26A    -11.257234    27A    -11.257145
      28A    -11.257076    29A    -11.257009    30A    -11.256952
      31A    -11.256372    32A    -11.256341    33A    -11.256229
      34A    -11.256182    35A    -11.256121    36A    -11.256088
      37A    -11.252187    38A    -11.252182    39A    -11.252174
      40A    -11.252161    41A    -11.252125    42A    -11.252125
      43A    -11.251274    44A    -11.251261    45A    -11.251257
      46A    -11.251240    47A    -11.251234    48A    -11.251216
      49A    -11.250748    50A    -11.250742    51A    -11.250735
      52A    -11.250722    53A    -11.250686    54A    -11.250686
      55A     -1.243817    56A     -1.219613    57A     -1.219568
      58A     -1.189344    59A     -1.189318    60A     -1.180706
      61A     -1.157367    62A     -1.148778    63A     -1.135280
      64A     -1.135237    65A     -1.113004    66A     -1.112996
      67A     -1.082218    68A     -1.082198    69A     -1.078371
      70A     -1.065801    71A     -1.065787    72A     -1.039195
      73A     -1.024037    74A     -1.021529    75A     -1.021455
      76A     -1.017538    77A     -1.012623    78A     -0.986814
      79A     -0.986734    80A     -0.961691    81A     -0.961628
      82A     -0.894080    83A     -0.894072    84A     -0.887677
      85A     -0.885920    86A     -0.885895    87A     -0.881153
      88A     -0.881112    89A     -0.861703    90A     -0.837239
      91A     -0.817994    92A     -0.816373    93A     -0.811899
      94A     -0.811892    95A     -0.794498    96A     -0.794484
      97A     -0.746374    98A     -0.744628    99A     -0.733187
     100A     -0.733154   101A     -0.731976   102A     -0.731964
     103A     -0.716275   104A     -0.698790   105A     -0.698731
     106A     -0.693390   107A     -0.693314   108A     -0.661036
     109A     -0.652876   110A     -0.650911   111A     -0.650068
     112A     -0.650048   113A     -0.639174   114A     -0.639132
     115A     -0.629487   116A     -0.627285   117A     -0.627282
     118A     -0.606414   119A     -0.605658   120A     -0.601418
     121A     -0.599558   122A     -0.599454   123A     -0.593403
     124A     -0.590977   125A     -0.590918   126A     -0.585111
     127A     -0.576422   128A     -0.576301   129A     -0.567149
     130A     -0.567113   131A     -0.565720   132A     -0.565714
     133A     -0.558481   134A     -0.554662   135A     -0.554624
     136A     -0.538402   137A     -0.538392   138A     -0.538157
     139A     -0.538121   140A     -0.529506   141A     -0.528105
     142A     -0.522687   143A     -0.522624   144A     -0.500309
     145A     -0.495544   146A     -0.493032   147A     -0.487748
     148A     -0.484837   149A     -0.481534   150A     -0.481520
     151A     -0.470255   152A     -0.470214   153A     -0.450745
     154A     -0.450693   155A     -0.438966   156A     -0.438959
     157A     -0.404625   158A     -0.404605   159A     -0.403264
     160A     -0.375311   161A     -0.375304   162A     -0.349009
     163A     -0.337473   164A     -0.336385   165A     -0.336366
     166A     -0.310953   167A     -0.298021   168A     -0.284200
     169A     -0.284135   170A     -0.224755   171A     -0.224699

  @DF-RHF Final Energy: -2055.89615014668334

   => Energetics <=

    Nuclear Repulsion Energy =           6452.5568002797781446
    One-Electron Energy =              -15636.5430615024542931
    Two-Electron Energy =                7128.0901110759914445
    Total Energy =                      -2055.8961501466837944
 Dipole X            :         -0.0000435           -0.0000085           -0.0000520
 Dipole Y            :          0.0008120            0.0000167            0.0008286
 Dipole Z            :       -287.7112116          287.7098873           -0.0013242
 Magnitude           :                                                    0.0015630

    SAPT Results
  --------------------------------------------------------------------------------------------------------
    Electrostatics                -47.67772107 [mEh]     -29.91822166 [kcal/mol]    -125.17783943 [kJ/mol]
      Elst10,r                    -47.67772107 [mEh]     -29.91822166 [kcal/mol]    -125.17783943 [kJ/mol]

    Exchange                      129.34031245 [mEh]      81.16227140 [kcal/mol]     339.58294355 [kJ/mol]
      Exch10                      129.34031245 [mEh]      81.16227140 [kcal/mol]     339.58294355 [kJ/mol]
      Exch10(S^2)                 125.39676165 [mEh]      78.68765592 [kcal/mol]     329.22915236 [kJ/mol]

    Induction                     -39.89080630 [mEh]     -25.03185887 [kcal/mol]    -104.73329752 [kJ/mol]
      Ind20,r                     -65.12050983 [mEh]     -40.86373686 [kcal/mol]    -170.97387501 [kJ/mol]
      Exch-Ind20,r                 38.14794100 [mEh]      23.93819438 [kcal/mol]     100.15740530 [kJ/mol]
      delta HF,r (2)              -12.91823747 [mEh]      -8.10631640 [kcal/mol]     -33.91682780 [kJ/mol]

    Dispersion                    -60.38267504 [mEh]     -37.89070064 [kcal/mol]    -158.53469147 [kJ/mol]
      Disp20                      -69.43323364 [mEh]     -43.57001190 [kcal/mol]    -182.29692980 [kJ/mol]
      Exch-Disp20                   9.05055860 [mEh]       5.67931126 [kcal/mol]      23.76223833 [kJ/mol]
      Disp20 (SS)                 -34.71661682 [mEh]     -21.78500595 [kcal/mol]     -91.14846490 [kJ/mol]
      Disp20 (OS)                 -34.71661682 [mEh]     -21.78500595 [kcal/mol]     -91.14846490 [kJ/mol]
      Exch-Disp20 (SS)              5.32204651 [mEh]       3.33963460 [kcal/mol]      13.97303118 [kJ/mol]
      Exch-Disp20 (OS)              3.72851209 [mEh]       2.33967666 [kcal/mol]       9.78920715 [kJ/mol]

  Total HF                         41.77178507 [mEh]      26.21219087 [kcal/mol]     109.67180660 [kJ/mol]
  Total SAPT0                     -18.61088997 [mEh]     -11.67850977 [kcal/mol]     -48.86288487 [kJ/mol]

  Special recipe for scaled SAPT0 (see Manual):
    Electrostatics sSAPT0         -47.67772107 [mEh]     -29.91822166 [kcal/mol]    -125.17783943 [kJ/mol]
    Exchange sSAPT0               129.34031245 [mEh]      81.16227140 [kcal/mol]     339.58294355 [kJ/mol]
    Induction sSAPT0              -36.17733693 [mEh]     -22.70162166 [kcal/mol]     -94.98358502 [kJ/mol]
    Dispersion sSAPT0             -59.50165836 [mEh]     -37.33785433 [kcal/mol]    -156.22158251 [kJ/mol]
  Total sSAPT0                    -14.01640391 [mEh]      -8.79542624 [kcal/mol]     -36.80006341 [kJ/mol]
  --------------------------------------------------------------------------------------------------------

*** Psi4 exiting successfully. Buy a developer a beer!
