                               Psi4 1.9 release

  ==> Input File <==

--------------------------------------------------------------------------
memory 32 GB # how much memory is available ! Depends on the nodes/cores !

molecule dimer {
# monomer A
-1 1    # Charge and multiplicity
B -1.977592e-04  2.742729e-04 -7.999966
F  1.123153e-16  1.430594e-17 -6.587181
F  1.147860e+00  6.757812e-01 -8.471107
F  1.191806e-02 -1.332011e+00 -8.470905
F -1.159666e+00  6.560735e-01 -8.470826
--
# monomer B
0 1     # Charge and multiplicity
C   1.22531237526482      0.70753866091955      0.00613762728373
C   1.22532433589282     -0.70753852257020     -0.00619318228664
C   -0.00000567409046      1.41496628609039     -0.00672680580738
C   2.45644923379077      1.41832825917820      0.00902448468363
C   0.00001130712078     -1.41497612663474      0.00347275151708
C   -1.22530046906674      0.70754574598412      0.00838914760619
C   2.45643823516184     -1.41832293188077     -0.00843833914343
C   -0.00000085313587      2.83680140328112     -0.00913035594137
C   3.68182717731192      0.70931832800114     -0.00808954934571
C   2.45512052870677      2.83422403348893     -0.00819210630633
C   3.68182158506039     -0.70933346742900      0.00798293467272
C   -1.22531311884624     -0.70752714354401     -0.00512042085974
C   1.22670006104402      3.54346985599427      0.00816696660346
C   0.00000526469929     -2.83678176723568      0.00832091913869
C   -2.45643555300670      1.41831729028492      0.00842454345199
C   2.45512389762097     -2.83422965658853      0.00783102630520
C   -1.22671388474763      3.54346943575023      0.00827029982280
C   4.91451777504333      1.42717324448953     -0.00160886631602
C   3.69315067131765      3.54279566454522     -0.00155906667985
C   -2.45643712022637     -1.41831290883911     -0.00846337726810
C   1.22670532178455     -3.54347386990643     -0.00780316414624
C   -2.45512491866593      2.83421703463423     -0.00818572995999
C   4.91452486062398     -1.42718653794377      0.00136387641845
C   1.22142509354026      4.97013443726031      0.00150231067809
C   4.89300870916237      2.82518837202648     -0.00039219795739
C   -1.22669652864725     -3.54347062507680     -0.00753595973677
C   -3.68181849668397      0.70932533873199     -0.00807686886569
C   3.69314758099218     -3.54280096939050      0.00148176697923
C   -1.22143177215231      4.97012866986289      0.00168580605083
C   6.13477145276790      0.68054831910577     -0.00083909176631
C   3.65678936045204      4.97295361556775     -0.00065042889723
C   -2.45512642789169     -2.83421472106065      0.00758666850712
C   -3.68181869921921     -0.70932533146830      0.00810055625144
C   4.89301309775526     -2.82519973363176      0.00021895393805
C   -0.00000059327114      5.65044773803267      0.00045449734393
C   6.13477559217374     -0.68055448207492      0.00042622874941
C   2.47813196269732      5.65357712333155      0.00063835075260
C   1.22142288457925     -4.97012668293268     -0.00129718634452
C   -3.69316190412301      3.54279732619245     -0.00139355922051
C   -1.22142804110313     -4.97011793159564     -0.00140994817719
C   -4.91452132810043      1.42717581899491     -0.00153192130862
C   3.65678749952045     -4.97295485423912      0.00080007163680
C   -2.47813805026426      5.65357479452875      0.00092287576113
C   -3.69314125872231     -3.54278984697859      0.00136564082345
C   -4.91451200321153     -1.42718062802730      0.00139857359209
C   -0.00000552908399     -5.65043791501335      0.00005899322272
C   -4.89302000425900      2.82518897091939     -0.00040227981744
C   2.47812647313991     -5.65357317188818     -0.00029052915548
C   -3.65679823041642      4.97295655404175     -0.00047374852278
C   -4.89299899901461     -2.82519139505969      0.00006491824035
C   -2.47812801824129     -5.65356579800621     -0.00056571680280
C   -6.13477002348955      0.68054913825639     -0.00086464346868
C   -3.65678835334731     -4.97294365097028      0.00058578382008
C   -6.13476456307132     -0.68055354348201      0.00040575295444
H   5.83528897565761      3.36927626695423      0.00396712770529
H   7.07385965258860      1.22821762089947     -0.00037744837300
H   4.60066374401555      5.51238117445323     -0.00014522814529
H   5.83528386714679     -3.36930568472863     -0.00423551337640
H   -0.00001167146422      6.73853104613662     -0.00389474766392
H   7.07386165167227     -1.22822657074368     -0.00008250934481
H   2.47331421164041      6.74068466339473      0.00017162982210
H   4.60066897122302     -5.51237575717576      0.00039007446835
H   -2.47331820069565      6.74068209160650      0.00047297644710
H   -0.00000978838621     -6.73852780445195      0.00458867820736
H   -5.83530143450167      3.36927132229595      0.00410314985360
H   2.47330840367253     -6.74068500242887      0.00027980126949
H   -4.60067436136587      5.51237839860371      0.00002010017831
H   -5.83527902699321     -3.36928859177951     -0.00451481925734
H   -2.47329986759855     -6.74067870613986     -0.00016951527498
H   -7.07385728692578      1.22822084484047     -0.00046143985387
H   -4.60067330624313     -5.51236229778631      0.00021776644566
H   -7.07385645456741     -1.22822025997701     -0.00017736581114

    units angstrom      # Angstroms are the default
    no_reorient         # Geometry fixed, default
    symmetry c1         # C1 symmetry, default
}

set {
    scf_type DF         # Density fitting, faster than exact integrals
    freeze_core True    # Freeze core electrons
    basis jun-cc-pVDZ   # Jun-cc-pVDZ basis set, recommended for sSAPT0 in https://doi.org/10.1063/1.4867135
}

energy('ssapt0')        # Compute sSAPT0 energy, includes also SAPT0
--------------------------------------------------------------------------

  //              Dimer HF             //
    Molecular point group: c1
  Charge       = -1
  Multiplicity = 1
  Basis Set: JUN-CC-PVDZ
    Blend: JUN-CC-PVDZ
  Basis Set: (JUN-CC-PVDZ AUX)
    Blend: JUN-CC-PVDZ-JKFIT
  @DF-RHF Final Energy: -2478.65849567507485
    Total Energy =                      -2478.6584956750739366
 Dipole X            :         -0.0005341            0.0000481           -0.0004860
 Dipole Y            :          0.0010943           -0.0001453            0.0009490
 Dipole Z            :        -36.3238030           49.0428237           12.7190207
 Magnitude           :                                                   12.7190208
  //            Monomer A HF           //
    Molecular point group: c1
  Multiplicity = 1
  Basis Set: JUN-CC-PVDZ
    Blend: JUN-CC-PVDZ
  Basis Set: (JUN-CC-PVDZ AUX)
    Blend: JUN-CC-PVDZ-JKFIT
  @DF-RHF Final Energy:  -422.77142758223363
    Total Energy =                       -422.7714275822336276
  //            Monomer B HF           //
    Molecular point group: c1

    Geometry (in Angstrom), charge = 0, multiplicity = 1:

       Center              X                  Y                   Z               Mass
    ------------   -----------------  -----------------  -----------------  -----------------
      Gh(B)          -0.000198161052     0.000273808717    -7.075806445792    11.009305360000
      Gh(F)          -0.000000401852    -0.000000464183    -5.663021445792    18.998403162730
      Gh(F)           1.147859598148     0.675780735817    -7.546947445792    18.998403162730
      Gh(F)           0.011917658148    -1.332011464183    -7.546745445792    18.998403162730
      Gh(F)          -1.159666401852     0.656073035817    -7.546666445792    18.998403162730
         C            1.225311973413     0.707538196736     0.930297181492    12.000000000000
         C            1.225323934041    -0.707538986754     0.917966371922    12.000000000000
         C           -0.000006075942     1.414965821907     0.917432748401    12.000000000000
         C            2.456448831939     1.418327794995     0.933184038892    12.000000000000
         C            0.000010905269    -1.414976590818     0.927632305725    12.000000000000
         C           -1.225300870919     0.707545281801     0.932548701815    12.000000000000
         C            2.456437833310    -1.418323396064     0.915721215065    12.000000000000
         C           -0.000001254988     2.836800939098     0.915029198267    12.000000000000
         C            3.681826775460     0.709317863818     0.916070004863    12.000000000000
         C            2.455120126855     2.834223569306     0.915967447902    12.000000000000
         C            3.681821183209    -0.709333931612     0.932142488881    12.000000000000
         C           -1.225313520698    -0.707527607727     0.919039133349    12.000000000000
         C            1.226699659192     3.543469391811     0.932326520812    12.000000000000
         C            0.000004862847    -2.836782231419     0.932480473347    12.000000000000
         C           -2.456435954859     1.418316826102     0.932584097660    12.000000000000
         C            2.455123495769    -2.834230120772     0.931990580514    12.000000000000
         C           -1.226714286599     3.543468971567     0.932429854031    12.000000000000
         C            4.914517373191     1.427172780306     0.922550687892    12.000000000000
         C            3.693150269466     3.542795200362     0.922600487528    12.000000000000
         C           -2.456437522078    -1.418313373022     0.915696176940    12.000000000000
         C            1.226704919933    -3.543474334090     0.916356390062    12.000000000000
         C           -2.455125320518     2.834216570451     0.915973824248    12.000000000000
         C            4.914524458772    -1.427187002127     0.925523430627    12.000000000000
         C            1.221424691688     4.970133973077     0.925661864886    12.000000000000
         C            4.893008307311     2.825187907843     0.923767356251    12.000000000000
         C           -1.226696930499    -3.543471089260     0.916623594472    12.000000000000
         C           -3.681818898536     0.709324874549     0.916082685343    12.000000000000
         C            3.693147179140    -3.542801433574     0.925641321188    12.000000000000
         C           -1.221432174004     4.970128205680     0.925845360259    12.000000000000
         C            6.134771050916     0.680547854922     0.923320462442    12.000000000000
         C            3.656788958600     4.972953151384     0.923509125311    12.000000000000
         C           -2.455126829744    -2.834215185244     0.931746222715    12.000000000000
         C           -3.681819101071    -0.709325795652     0.932260110460    12.000000000000
         C            4.893012695903    -2.825200197815     0.924378508146    12.000000000000
         C           -0.000000995123     5.650447273849     0.924614051552    12.000000000000
         C            6.134775190322    -0.680554946258     0.924585782958    12.000000000000
         C            2.478131560845     5.653576659148     0.924797904961    12.000000000000
         C            1.221422482727    -4.970127147116     0.922862367864    12.000000000000
         C           -3.693162305975     3.542796862009     0.922765994988    12.000000000000
         C           -1.221428442955    -4.970118395779     0.922749606031    12.000000000000
         C           -4.914521729952     1.427175354812     0.922627632900    12.000000000000
         C            3.656787097669    -4.972955318422     0.924959625845    12.000000000000
         C           -2.478138452116     5.653574330345     0.925082429969    12.000000000000
         C           -3.693141660574    -3.542790311162     0.925525195032    12.000000000000
         C           -4.914512405063    -1.427181092211     0.925558127800    12.000000000000
         C           -0.000005930936    -5.650438379197     0.924218547431    12.000000000000
         C           -4.893020406111     2.825188506736     0.923757274391    12.000000000000
         C            2.478126071288    -5.653573636072     0.923869025053    12.000000000000
         C           -3.656798632268     4.972956089858     0.923685805686    12.000000000000
         C           -4.892999400866    -2.825191859243     0.924224472449    12.000000000000
         C           -2.478128420093    -5.653566262190     0.923593837406    12.000000000000
         C           -6.134770425341     0.680548674073     0.923294910740    12.000000000000
         C           -3.656788755199    -4.972944115154     0.924745338028    12.000000000000
         C           -6.134764964923    -0.680554007665     0.924565307163    12.000000000000
         H            5.835288573806     3.369275802771     0.928126681914     1.007825032230
         H            7.073859250737     1.228217156716     0.923782105835     1.007825032230
         H            4.600663342164     5.512380710270     0.924014326063     1.007825032230
         H            5.835283465295    -3.369306148912     0.919924040832     1.007825032230
         H           -0.000012073316     6.738530581953     0.920264806544     1.007825032230
         H            7.073861249820    -1.228227034927     0.924077044864     1.007825032230
         H            2.473313809789     6.740684199211     0.924331184030     1.007825032230
         H            4.600668569371    -5.512376221359     0.924549628677     1.007825032230
         H           -2.473318602548     6.740681627423     0.924632530655     1.007825032230
         H           -0.000010190238    -6.738528268635     0.928748232416     1.007825032230
         H           -5.835301836354     3.369270858113     0.928262704062     1.007825032230
         H            2.473308001821    -6.740685466612     0.924439355478     1.007825032230
         H           -4.600674763218     5.512377934420     0.924179654387     1.007825032230
         H           -5.835279428845    -3.369289055963     0.919644734951     1.007825032230
         H           -2.473300269450    -6.740679170323     0.923990038933     1.007825032230
         H           -7.073857688778     1.228220380657     0.923698114354     1.007825032230
         H           -4.600673708095    -5.512362761970     0.924377320654     1.007825032230
         H           -7.073856856419    -1.228220724160     0.923982188397     1.007825032230

  Charge       = 0
  Multiplicity = 1
  Basis Set: JUN-CC-PVDZ
    Blend: JUN-CC-PVDZ
  Basis Set: (JUN-CC-PVDZ AUX)
    Blend: JUN-CC-PVDZ-JKFIT

    Orbital Energies [Eh]
    ---------------------

    Doubly Occupied:

       1A    -11.260680     2A    -11.260237     3A    -11.260235
       4A    -11.259524     5A    -11.259524     6A    -11.259354
       7A    -11.259145     8A    -11.259067     9A    -11.259066
      10A    -11.258741    11A    -11.258738    12A    -11.258668
      13A    -11.258606    14A    -11.258601    15A    -11.258598
      16A    -11.258569    17A    -11.258563    18A    -11.258547
      19A    -11.258534    20A    -11.258529    21A    -11.258523
      22A    -11.258426    23A    -11.258422    24A    -11.258125
      25A    -11.257464    26A    -11.257402    27A    -11.257401
      28A    -11.257266    29A    -11.257266    30A    -11.257181
      31A    -11.256559    32A    -11.256488    33A    -11.256488
      34A    -11.256378    35A    -11.256378    36A    -11.256331
      37A    -11.252404    38A    -11.252403    39A    -11.252402
      40A    -11.252400    41A    -11.252398    42A    -11.252396
      43A    -11.251539    44A    -11.251536    45A    -11.251535
      46A    -11.251529    47A    -11.251529    48A    -11.251525
      49A    -11.250966    50A    -11.250965    51A    -11.250963
      52A    -11.250961    53A    -11.250959    54A    -11.250958
      55A     -1.244304    56A     -1.220020    57A     -1.220020
      58A     -1.189728    59A     -1.189721    60A     -1.181174
      61A     -1.157728    62A     -1.149161    63A     -1.135712
      64A     -1.135705    65A     -1.113362    66A     -1.113357
      67A     -1.082635    68A     -1.082628    69A     -1.078820
      70A     -1.066145    71A     -1.066141    72A     -1.039585
      73A     -1.024498    74A     -1.022001    75A     -1.021958
      76A     -1.017894    77A     -1.012955    78A     -0.987228
      79A     -0.987182    80A     -0.962056    81A     -0.962006
      82A     -0.894474    83A     -0.894448    84A     -0.888173
      85A     -0.886420    86A     -0.886362    87A     -0.881608
      88A     -0.881560    89A     -0.862080    90A     -0.837557
      91A     -0.818397    92A     -0.816840    93A     -0.812347
      94A     -0.812337    95A     -0.794861    96A     -0.794850
      97A     -0.746846    98A     -0.745072    99A     -0.733640
     100A     -0.733632   101A     -0.732360   102A     -0.732336
     103A     -0.716708   104A     -0.699156   105A     -0.699146
     106A     -0.693783   107A     -0.693767   108A     -0.661406
     109A     -0.653341   110A     -0.651387   111A     -0.650424
     112A     -0.650418   113A     -0.639536   114A     -0.639533
     115A     -0.629921   116A     -0.627732   117A     -0.627717
     118A     -0.606460   119A     -0.605939   120A     -0.601874
     121A     -0.599926   122A     -0.599895   123A     -0.593831
     124A     -0.591462   125A     -0.591452   126A     -0.585425
     127A     -0.576421   128A     -0.576415   129A     -0.567484
     130A     -0.567470   131A     -0.566173   132A     -0.566154
     133A     -0.558949   134A     -0.555030   135A     -0.555024
     136A     -0.538766   137A     -0.538764   138A     -0.538293
     139A     -0.538287   140A     -0.529903   141A     -0.528210
     142A     -0.523058   143A     -0.523051   144A     -0.500675
     145A     -0.495723   146A     -0.493414   147A     -0.487952
     148A     -0.485274   149A     -0.481955   150A     -0.481947
     151A     -0.470442   152A     -0.470424   153A     -0.451260
     154A     -0.451182   155A     -0.439194   156A     -0.439184
     157A     -0.404874   158A     -0.404852   159A     -0.403496
     160A     -0.375548   161A     -0.375545   162A     -0.349252
     163A     -0.337721   164A     -0.336689   165A     -0.336631
     166A     -0.311229   167A     -0.298215   168A     -0.284486
     169A     -0.284432   170A     -0.225054   171A     -0.224988

  @DF-RHF Final Energy: -2055.89161109625502

   => Energetics <=

    Nuclear Repulsion Energy =           6452.5568002797772351
    One-Electron Energy =              -15636.4242748803062568
    Two-Electron Energy =                7127.9758635042744572
    Total Energy =                      -2055.8916110962545645
 Dipole X            :          0.0000537            0.0000419            0.0000956
 Dipole Y            :          0.0000279           -0.0000426           -0.0000147
 Dipole Z            :       -597.2697741          597.2702482            0.0004741
 Magnitude           :                                                    0.0004839

    SAPT Results
  --------------------------------------------------------------------------------------------------------
    Electrostatics                  6.08841411 [mEh]       3.82053754 [kcal/mol]      15.98512905 [kJ/mol]
      Elst10,r                      6.08841411 [mEh]       3.82053754 [kcal/mol]      15.98512905 [kJ/mol]

    Exchange                       -0.00010640 [mEh]      -0.00006677 [kcal/mol]      -0.00027936 [kJ/mol]
      Exch10                       -0.00010640 [mEh]      -0.00006677 [kcal/mol]      -0.00027936 [kJ/mol]
      Exch10(S^2)                  -0.00010640 [mEh]      -0.00006677 [kcal/mol]      -0.00027936 [kJ/mol]

    Induction                      -1.54530430 [mEh]      -0.96969309 [kcal/mol]      -4.05719587 [kJ/mol]
      Ind20,r                      -1.55368111 [mEh]      -0.97494962 [kcal/mol]      -4.07918919 [kJ/mol]
      Exch-Ind20,r                  0.00006978 [mEh]       0.00004379 [kcal/mol]       0.00018321 [kJ/mol]
      delta HF,r (2)                0.00830703 [mEh]       0.00521274 [kcal/mol]       0.02181012 [kJ/mol]

    Dispersion                     -0.21325303 [mEh]      -0.13381830 [kcal/mol]      -0.55989576 [kJ/mol]
      Disp20                       -0.21328483 [mEh]      -0.13383825 [kcal/mol]      -0.55997925 [kJ/mol]
      Exch-Disp20                   0.00003180 [mEh]       0.00001995 [kcal/mol]       0.00008349 [kJ/mol]
      Disp20 (SS)                  -0.10664242 [mEh]      -0.06691913 [kcal/mol]      -0.27998962 [kJ/mol]
      Disp20 (OS)                  -0.10664242 [mEh]      -0.06691913 [kcal/mol]      -0.27998962 [kJ/mol]
      Exch-Disp20 (SS)              0.00002541 [mEh]       0.00001595 [kcal/mol]       0.00006672 [kJ/mol]
      Exch-Disp20 (OS)              0.00000638 [mEh]       0.00000401 [kcal/mol]       0.00001676 [kJ/mol]

  Total HF                          4.54300341 [mEh]       2.85077768 [kcal/mol]      11.92765382 [kJ/mol]
  Total SAPT0                       4.32975038 [mEh]       2.71695938 [kcal/mol]      11.36775806 [kJ/mol]

  Special recipe for scaled SAPT0 (see Manual):
    Electrostatics sSAPT0           6.08841411 [mEh]       3.82053754 [kcal/mol]      15.98512905 [kJ/mol]
    Exchange sSAPT0                -0.00010640 [mEh]      -0.00006677 [kcal/mol]      -0.00027936 [kJ/mol]
    Induction sSAPT0               -1.54530430 [mEh]      -0.96969309 [kcal/mol]      -4.05719587 [kJ/mol]
    Dispersion sSAPT0              -0.21325303 [mEh]      -0.13381830 [kcal/mol]      -0.55989576 [kJ/mol]
  Total sSAPT0                      4.32975038 [mEh]       2.71695938 [kcal/mol]      11.36775806 [kJ/mol]
  --------------------------------------------------------------------------------------------------------

*** Psi4 exiting successfully. Buy a developer a beer!
