                               Psi4 1.9 release

  ==> Input File <==

--------------------------------------------------------------------------
memory 64 GB # how much memory is available ! Depends on the nodes/cores !

molecule dimer {
# monomer A
-1 1    # Charge and multiplicity
B -0.000046  0.000337 6.999994
F -1.153597  0.000048 7.815641
F  1.153661 -0.000581 7.815641
F -0.000019 -1.153637 6.184360
F -0.000019  1.153978 6.184360
--
# monomer B
0 1     # Charge and multiplicity
C   -3.66844126402057      7.80375217008252      0.00190004133558
C   -4.84759871934653      7.13124183134024     -0.00046653359696
C   -4.89495929917518      5.69633040353158     -0.00103944469517
C   -3.65374067877320      4.98073034095895      0.00662099703436
C   -2.40942512149445      7.11398103667468      0.00209438359570
C   -2.42547734410473      5.68112195090346     -0.00491050527438
C   -1.19474401643570      7.78614419430947      0.00356656413763
C   0.03795902893699      7.09942164575698      0.00139585983271
C   0.03033258741920      5.66948955970466     -0.00408752508301
C   -1.20098450790502      4.96927034791531      0.00488220885047
C   1.27795782581485      7.77285944319479      0.00277170839332
C   2.48535808472416      7.08769688523756      0.00049722048857
C   2.48612868491717      5.65477081024076     -0.00644052849921
C   1.25408291964399      4.95607811366431      0.00518741308898
C   3.75171459140595      7.76391215098033      0.00062407186893
C   4.92356605618520      7.07878077698995     -0.00143240883900
C   4.95560727132542      5.64344746336949     -0.00159282164606
C   3.70680153420475      4.94121020833308      0.00349873852374
H   -3.65852113775815      8.89082741913536      0.00358502958574
H   -1.18921332975660      8.87412108735996      0.00753844057883
H   1.28429423888630      8.86083343548850      0.00693053253426
H   3.75354208679975      8.85103527897216      0.00214659618464
H   5.86995870320703      7.61379483465560     -0.00235777588134
H   -5.78823170750226      7.67630221293400     -0.00202638095293
C   -6.09197395869619      4.99326001364347     -0.00291168518608
C   -6.12866148031747      3.58258016879823     -0.00171050815740
C   -3.66457974004527      3.56418217974434     -0.00463560277484
C   -4.89429820469869      2.86108077590057      0.00453338221034
C   -2.43733499489796      2.84761165708481      0.00719617576166
C   -1.20922785759670      3.54788693497833     -0.00648285103018
C   1.24714157216223      3.53468075142962     -0.00729145743546
C   0.01517603956900      2.83311183930540      0.00439272578912
C   2.46764517244071      2.82128997725533      0.00449278391269
C   3.70254947457969      3.52466015442405     -0.00899517692985
C   6.14498038638375      4.92757236613191     -0.00282626685777
C   6.16658835886151      3.51658447594213     -0.00065971342101
C   4.92460995845939      2.80840792535402      0.00587903281610
H   7.08990550964105      5.46688776622306     -0.00658814770723
H   -7.03104175110130      5.54268795285765     -0.00714490013730
C   -7.33969804112295      2.85841153457957     -0.00333767559888
C   -7.36488195805880      1.47032337158330     -0.00157213747140
C   -4.90350460894690      1.44442681216000     -0.00628840166334
C   -6.13225715261081      0.73993935705394      0.00600164231964
C   -3.67687480051673      0.72669714267312      0.00433931473643
C   -2.44565658606518      1.42964113326212     -0.00597039546461
C   -1.22360068130162      0.71532450163492      0.00545886906656
C   0.00763786931376      1.41738314923765      0.00392452278437
C   1.23121980774686      0.70211669058719     -0.01490206287210
C   2.46082110053113      1.40329203612573      0.00460244601878
C   3.68443025419614      0.68719842821222      0.00377365974158
C   4.91870890153864      1.39173456118907     -0.00862816189375
C   7.36980207796101      2.77948220318441     -0.00242013321349
C   7.38016266612146      1.39121750785509     -0.00087345036788
C   6.13979953912259      0.67411862320065      0.00545489144369
H   -8.27919079934664      3.40711804112415     -0.00763522772059
H   8.31511347147953      3.31811809662368     -0.00663070901292
C   -8.59175593758115      0.72483255304480     -0.00123170985383
C   -8.59902460370342     -0.63263980622873      0.00089141472904
C   -6.13981313911873     -0.67413663715361     -0.00609792660607
C   -7.38018411213749     -1.39126618958160      0.00131813493501
C   -4.91868448025621     -1.39175501803000      0.00624257154343
C   -3.68443829568458     -0.68723731573599     -0.00478966852105
C   -2.46081704024768     -1.40334517882457      0.00575341766833
C   -1.23116201232071     -0.70217386488055     -0.00636696112346
C   -0.00756962538737     -1.41741884941102      0.00108956317991
C   1.22364771588843     -0.71527537726392      0.01109518512883
C   2.44567064933149     -1.42964328900682     -0.00065482763106
C   3.67686670284649     -0.72670743155550     -0.00479541202602
C   6.13224884641929     -0.73997883984993     -0.00632338623858
C   4.90351914550401     -1.44445752054090      0.00751768830159
C   8.59901484869081      0.63260386666793     -0.00101133422380
C   8.59174548810050     -0.72485086719319      0.00072504603735
C   7.36486276438985     -1.47033266560598      0.00049486934466
H   -9.52830597181814      1.27684744919284     -0.00270163681798
H   9.54141097460619      1.17457248844457     -0.00206336648518
C   -7.36983790976868     -2.77954514593389      0.00312634335708
C   -4.92459910905015     -2.80843725734101     -0.00460528907921
C   -6.16662249566744     -3.51665219282533      0.00169655107992
C   -3.70251035970491     -3.52468154912026      0.00571878010666
C   -2.46764698511392     -2.82132596280400     -0.00632585824990
C   -0.01513347410770     -2.83314164539971     -0.00604426974092
C   -1.24712184122656     -3.53473217556300      0.00551968366725
C   1.20924506964357     -3.54791467864352      0.00805871345849
C   2.43733602215464     -2.84764173817541     -0.00608104485234
C   4.89430234377080     -2.86112296828604     -0.00526030478103
C   3.66461525504104     -3.56421984553201      0.00761911515957
C   6.12863901474565     -3.58258405771778      0.00096495711699
C   7.33967266469532     -2.85841330737039      0.00248018319869
H   -9.54144911125902     -1.17456346666430      0.00226083090216
H   9.52826186807155     -1.27691907390448      0.00197485379837
H   -8.31516504384864     -3.31814985321231      0.00729857188773
H   8.27915514249207     -3.40714078989363      0.00681973918158
C   -6.14499418870218     -4.92764727278338      0.00302254913999
C   -3.70678334799751     -4.94126171411716     -0.00679841894792
C   -4.95559005800169     -5.64349397349412      0.00116871569699
C   -2.48612132622665     -5.65478557440947      0.00614125209662
C   -1.25405833548005     -4.95612205000132     -0.00503435388927
C   1.20101257386816     -4.96928038819302     -0.00385322963129
C   -0.03033667441341     -5.66952030313900      0.00398997003238
C   3.65375010132847     -4.98074377541453     -0.00309522988330
C   2.42549269587528     -5.68117463552727      0.00628170066869
C   6.09196561781097     -4.99325796338655      0.00325918379042
C   4.89497644461045     -5.69634842095790      0.00202298796027
H   -7.08989238804069     -5.46699984223871      0.00742531082125
H   7.03105520920009     -5.54265853633254      0.00683896355417
C   -4.92354532219813     -7.07882109967734      0.00061394679214
C   -2.48534208823777     -7.08772807792913     -0.00189594564379
C   -3.75168589177895     -7.76394715763627     -0.00170126671874
C   -0.03794895698805     -7.09946487446944     -0.00168022049625
C   -1.27795610040136     -7.77290438466689     -0.00366491325785
C   2.40944432072629     -7.11402201200282     -0.00081701968533
C   1.19474993715296     -7.78618536556242     -0.00296931056689
C   4.84762105249800     -7.13126211057943      0.00168979497423
C   3.66847160587561     -7.80378799294376     -0.00065863938960
H   -5.86994035041618     -7.61383059804164      0.00215798365757
H   5.78824962538815     -7.67633218931421      0.00281691445618
H   -3.75352693944918     -8.85107156923607     -0.00353718114765
H   -1.28430440589466     -8.86087539249706     -0.00809229711623
H   1.18922157469537     -8.87416062058945     -0.00706194725726
H   3.65854661482387     -8.89086063405326     -0.00231318081200

    units angstrom      # Angstroms are the default
    no_reorient         # Geometry fixed, default
    symmetry c1         # C1 symmetry, default
}

set {
    scf_type DF         # Density fitting, faster than exact integrals
    freeze_core True    # Freeze core electrons
    basis jun-cc-pVDZ   # Jun-cc-pVDZ basis set, recommended for sSAPT0 in https://doi.org/10.1063/1.4867135
}

energy('ssapt0')        # Compute sSAPT0 energy, includes also SAPT0
--------------------------------------------------------------------------

  //              Dimer HF             //
    Molecular point group: c1
  Charge       = -1
  Multiplicity = 1
  Basis Set: JUN-CC-PVDZ
    Blend: JUN-CC-PVDZ
  Basis Set: (JUN-CC-PVDZ AUX)
    Blend: JUN-CC-PVDZ-JKFIT
  @DF-RHF Final Energy: -4073.10391311044532
    Total Energy =                      -4073.1039131104444095
 Dipole X            :         -0.0003171           -0.0001188           -0.0004360
 Dipole Y            :          0.0012191           -0.0002727            0.0009464
 Dipole Z            :         30.3058874          -41.6583791          -11.3524918
 Magnitude           :                                                   11.3524918
  //            Monomer A HF           //
    Molecular point group: c1
  Multiplicity = 1
  Basis Set: JUN-CC-PVDZ
    Blend: JUN-CC-PVDZ
  Basis Set: (JUN-CC-PVDZ AUX)
    Blend: JUN-CC-PVDZ-JKFIT
  @DF-RHF Final Energy:  -422.77146406818264
    Total Energy =                       -422.7714640681826381
  //            Monomer B HF           //
    Molecular point group: c1

    Geometry (in Angstrom), charge = 0, multiplicity = 1:

       Center              X                  Y                   Z               Mass
    ------------   -----------------  -----------------  -----------------  -----------------
      Gh(B)          -0.000050191042     0.000351518223     6.517862256175    11.009305360000
      Gh(F)          -1.153601191042     0.000062518223     7.333509256175    18.998403162730
      Gh(F)           1.153656808958    -0.000566481777     7.333509256175    18.998403162730
      Gh(F)          -0.000023191042    -1.153622481777     5.702228256175    18.998403162730
      Gh(F)          -0.000023191042     1.153992518223     5.702228256175    18.998403162730
         C           -3.668445455062     7.803766688305    -0.480231702490    12.000000000000
         C           -4.847602910388     7.131256349563    -0.482598277422    12.000000000000
         C           -4.894963490217     5.696344921754    -0.483171188520    12.000000000000
         C           -3.653744869815     4.980744859182    -0.475510746791    12.000000000000
         C           -2.409429312536     7.113995554897    -0.480037360229    12.000000000000
         C           -2.425481535146     5.681136469126    -0.487042249100    12.000000000000
         C           -1.194748207477     7.786158712532    -0.478565179688    12.000000000000
         C            0.037954837895     7.099436163980    -0.480735883992    12.000000000000
         C            0.030328396378     5.669504077927    -0.486219268908    12.000000000000
         C           -1.200988698947     4.969284866138    -0.477249534975    12.000000000000
         C            1.277953634773     7.772873961417    -0.479360035432    12.000000000000
         C            2.485353893683     7.087711403460    -0.481634523337    12.000000000000
         C            2.486124493876     5.654785328463    -0.488572272324    12.000000000000
         C            1.254078728602     4.956092631887    -0.476944330736    12.000000000000
         C            3.751710400364     7.763926669203    -0.481507671956    12.000000000000
         C            4.923561865144     7.078795295213    -0.483564152664    12.000000000000
         C            4.955603080284     5.643461981592    -0.483724565471    12.000000000000
         C            3.706797343163     4.941224726556    -0.478633005301    12.000000000000
         H           -3.658525328800     8.890841937358    -0.478546714239     1.007825032230
         H           -1.189217520798     8.874135605583    -0.474593303246     1.007825032230
         H            1.284290047845     8.860847953711    -0.475201211291     1.007825032230
         H            3.753537895758     8.851049797195    -0.479985147641     1.007825032230
         H            5.869954512165     7.613809352878    -0.484489519707     1.007825032230
         H           -5.788235898544     7.676316731157    -0.484158124778     1.007825032230
         C           -6.091978149738     4.993274531866    -0.485043429011    12.000000000000
         C           -6.128665671359     3.582594687021    -0.483842251983    12.000000000000
         C           -3.664583931087     3.564196697967    -0.486767346600    12.000000000000
         C           -4.894302395740     2.861095294123    -0.477598361615    12.000000000000
         C           -2.437339185940     2.847626175307    -0.474935568064    12.000000000000
         C           -1.209232048638     3.547901453201    -0.488614594855    12.000000000000
         C            1.247137381121     3.534695269652    -0.489423201261    12.000000000000
         C            0.015171848527     2.833126357528    -0.477739018036    12.000000000000
         C            2.467640981399     2.821304495478    -0.477638959912    12.000000000000
         C            3.702545283538     3.524674672647    -0.491126920755    12.000000000000
         C            6.144976195342     4.927586884354    -0.484958010683    12.000000000000
         C            6.166584167820     3.516598994165    -0.482791457246    12.000000000000
         C            4.924605767418     2.808422443577    -0.476252711009    12.000000000000
         H            7.089901318599     5.466902284446    -0.488719891532     1.007825032230
         H           -7.031045942143     5.542702471080    -0.489276643962     1.007825032230
         C           -7.339702232165     2.858426052802    -0.485469419424    12.000000000000
         C           -7.364886149100     1.470337889806    -0.483703881297    12.000000000000
         C           -4.903508799989     1.444441330383    -0.488420145489    12.000000000000
         C           -6.132261343652     0.739953875277    -0.476130101506    12.000000000000
         C           -3.676878991558     0.726711660896    -0.477792429089    12.000000000000
         C           -2.445660777107     1.429655651485    -0.488102139290    12.000000000000
         C           -1.223604872343     0.715339019858    -0.476672874759    12.000000000000
         C            0.007633678272     1.417397667460    -0.478207221041    12.000000000000
         C            1.231215616705     0.702131208810    -0.497033806697    12.000000000000
         C            2.460816909489     1.403306554348    -0.477529297806    12.000000000000
         C            3.684426063155     0.687212946435    -0.478358084084    12.000000000000
         C            4.918704710497     1.391749079412    -0.490759905719    12.000000000000
         C            7.369797886919     2.779496721407    -0.484551877039    12.000000000000
         C            7.380158475080     1.391232026078    -0.483005194193    12.000000000000
         C            6.139795348081     0.674133141423    -0.476676852381    12.000000000000
         H           -8.279194990388     3.407132559347    -0.489766971546     1.007825032230
         H            8.315109280438     3.318132614846    -0.488762452838     1.007825032230
         C           -8.591760128623     0.724847071267    -0.483363453679    12.000000000000
         C           -8.599028794745    -0.632625288006    -0.481240329096    12.000000000000
         C           -6.139817330160    -0.674122118931    -0.488229670431    12.000000000000
         C           -7.380188303179    -1.391251671359    -0.480813608890    12.000000000000
         C           -4.918688671298    -1.391740499807    -0.475889172282    12.000000000000
         C           -3.684442486726    -0.687222797513    -0.486921412346    12.000000000000
         C           -2.460821231289    -1.403330660602    -0.476378326157    12.000000000000
         C           -1.231166203362    -0.702159346658    -0.488498704949    12.000000000000
         C           -0.007573816429    -1.417404331188    -0.481042180645    12.000000000000
         C            1.223643524847    -0.715260859041    -0.471036558696    12.000000000000
         C            2.445666458290    -1.429628770784    -0.482786571456    12.000000000000
         C            3.676862511805    -0.726692913333    -0.486927155851    12.000000000000
         C            6.132244655378    -0.739964321627    -0.488455130064    12.000000000000
         C            4.903514954462    -1.444443002318    -0.474614055524    12.000000000000
         C            8.599010657649     0.632618384891    -0.483143078049    12.000000000000
         C            8.591741297059    -0.724836348971    -0.481406697788    12.000000000000
         C            7.364858573348    -1.470318147383    -0.481636874481    12.000000000000
         H           -9.528310162860     1.276861967415    -0.484833380643     1.007825032230
         H            9.541406783565     1.174587006667    -0.484195110310     1.007825032230
         C           -7.369842100810    -2.779530627711    -0.479005400468    12.000000000000
         C           -4.924603300092    -2.808422739118    -0.486737032904    12.000000000000
         C           -6.166626686709    -3.516637674603    -0.480435192745    12.000000000000
         C           -3.702514550747    -3.524667030898    -0.476412963719    12.000000000000
         C           -2.467651176156    -2.821311444581    -0.488457602075    12.000000000000
         C           -0.015137665149    -2.833127127177    -0.488176013566    12.000000000000
         C           -1.247126032268    -3.534717657340    -0.476612060158    12.000000000000
         C            1.209240878602    -3.547900160421    -0.474073030367    12.000000000000
         C            2.437331831113    -2.847627219953    -0.488212788678    12.000000000000
         C            4.894298152729    -2.861108450063    -0.487392048606    12.000000000000
         C            3.664611063999    -3.564205327309    -0.474512628666    12.000000000000
         C            6.128634823704    -3.582569539495    -0.481166786708    12.000000000000
         C            7.339668473654    -2.858398789148    -0.479651560626    12.000000000000
         H           -9.541453302301    -1.174548948442    -0.479870912923     1.007825032230
         H            9.528257677030    -1.276904555682    -0.480156890027     1.007825032230
         H           -8.315169234890    -3.318135334990    -0.474833171937     1.007825032230
         H            8.279150951450    -3.407126271671    -0.475312004644     1.007825032230
         C           -6.144998379744    -4.927632754561    -0.479109194685    12.000000000000
         C           -3.706787539039    -4.941247195895    -0.488930162773    12.000000000000
         C           -4.955594249043    -5.643479455272    -0.480963028128    12.000000000000
         C           -2.486125517268    -5.654771056187    -0.475990491729    12.000000000000
         C           -1.254062526522    -4.956107531779    -0.487166097714    12.000000000000
         C            1.201008382827    -4.969265869970    -0.485984973456    12.000000000000
         C           -0.030340865455    -5.669505784916    -0.478141773793    12.000000000000
         C            3.653745910287    -4.980729257192    -0.485226973708    12.000000000000
         C            2.425488504834    -5.681160117305    -0.475850043156    12.000000000000
         C            6.091961426769    -4.993243445164    -0.478872560035    12.000000000000
         C            4.894972253569    -5.696333902735    -0.480108755865    12.000000000000
         H           -7.089896579082    -5.466985324016    -0.474706433004     1.007825032230
         H            7.031051018158    -5.542644018110    -0.475292780271     1.007825032230
         C           -4.923549513240    -7.078806581455    -0.481517797033    12.000000000000
         C           -2.485346279279    -7.087713559707    -0.484027689469    12.000000000000
         C           -3.751690082821    -7.763932639414    -0.483833010544    12.000000000000
         C           -0.037953148030    -7.099450356247    -0.483811964321    12.000000000000
         C           -1.277960291443    -7.772889866444    -0.485796657083    12.000000000000
         C            2.409440129685    -7.114007493780    -0.482948763511    12.000000000000
         C            1.194745746111    -7.786170847340    -0.485101054392    12.000000000000
         C            4.847616861456    -7.131247592357    -0.480441948851    12.000000000000
         C            3.668467414834    -7.803773474721    -0.482790383215    12.000000000000
         H           -5.869944541458    -7.613816079819    -0.479973760168     1.007825032230
         H            5.788245434347    -7.676317671092    -0.479314829369     1.007825032230
         H           -3.753531130491    -8.851057051013    -0.485668924973     1.007825032230
         H           -1.284308596936    -8.860860874274    -0.490224040941     1.007825032230
         H            1.189217383654    -8.874146102367    -0.489193691082     1.007825032230
         H            3.658542423782    -8.890846115831    -0.484444924637     1.007825032230

  Charge       = 0
  Multiplicity = 1
  Basis Set: JUN-CC-PVDZ
    Blend: JUN-CC-PVDZ
  Basis Set: (JUN-CC-PVDZ AUX)
    Blend: JUN-CC-PVDZ-JKFIT

    Orbital Energies [Eh]
    ---------------------

    Doubly Occupied:

       1A    -11.264060     2A    -11.263746     3A    -11.263744
       4A    -11.263403     5A    -11.263400     6A    -11.263365
       7A    -11.263208     8A    -11.263182     9A    -11.263178
      10A    -11.263021    11A    -11.262862    12A    -11.262858
      13A    -11.262379    14A    -11.262376    15A    -11.262302
      16A    -11.262300    17A    -11.262250    18A    -11.262215
      19A    -11.262170    20A    -11.262131    21A    -11.262130
      22A    -11.261976    23A    -11.261972    24A    -11.261852
      25A    -11.261837    26A    -11.261823    27A    -11.261819
      28A    -11.261772    29A    -11.261764    30A    -11.261691
      31A    -11.261665    32A    -11.261662    33A    -11.261636
      34A    -11.261635    35A    -11.261614    36A    -11.261568
      37A    -11.261426    38A    -11.261414    39A    -11.261408
      40A    -11.261401    41A    -11.261396    42A    -11.261388
      43A    -11.261384    44A    -11.261370    45A    -11.261365
      46A    -11.261342    47A    -11.261338    48A    -11.261334
      49A    -11.261182    50A    -11.261151    51A    -11.261148
      52A    -11.261069    53A    -11.261067    54A    -11.260997
      55A    -11.260027    56A    -11.260014    57A    -11.260011
      58A    -11.259983    59A    -11.259980    60A    -11.259965
      61A    -11.259405    62A    -11.259380    63A    -11.259377
      64A    -11.259325    65A    -11.259323    66A    -11.259294
      67A    -11.259032    68A    -11.259014    69A    -11.259012
      70A    -11.258985    71A    -11.258982    72A    -11.258971
      73A    -11.254599    74A    -11.254597    75A    -11.254596
      76A    -11.254593    77A    -11.254588    78A    -11.254585
      79A    -11.253751    80A    -11.253749    81A    -11.253746
      82A    -11.253745    83A    -11.253743    84A    -11.253737
      85A    -11.253666    86A    -11.253665    87A    -11.253662
      88A    -11.253661    89A    -11.253658    90A    -11.253653
      91A    -11.253126    92A    -11.253125    93A    -11.253124
      94A    -11.253121    95A    -11.253115    96A    -11.253113
      97A     -1.254155    98A     -1.239157    99A     -1.239157
     100A     -1.220598   101A     -1.220594   102A     -1.215628
     103A     -1.201158   104A     -1.195729   105A     -1.188318
     106A     -1.188316   107A     -1.173878   108A     -1.173875
     109A     -1.155790   110A     -1.155787   111A     -1.152897
     112A     -1.144831   113A     -1.144828   114A     -1.128712
     115A     -1.114872   116A     -1.113273   117A     -1.112657
     118A     -1.112643   119A     -1.111721   120A     -1.088574
     121A     -1.088559   122A     -1.077069   123A     -1.077068
     124A     -1.067768   125A     -1.067739   126A     -1.065140
     127A     -1.046932   128A     -1.046925   129A     -1.040621
     130A     -1.038842   131A     -1.038841   132A     -1.025407
     133A     -1.021581   134A     -1.021531   135A     -1.007303
     136A     -1.006949   137A     -1.003923   138A     -1.000650
     139A     -1.000601   140A     -0.991176   141A     -0.971137
     142A     -0.971089   143A     -0.956003   144A     -0.955947
     145A     -0.905779   146A     -0.905738   147A     -0.905648
     148A     -0.905608   149A     -0.904537   150A     -0.892550
     151A     -0.892491   152A     -0.890534   153A     -0.890477
     154A     -0.889608   155A     -0.872332   156A     -0.869143
     157A     -0.851662   158A     -0.848029   159A     -0.848007
     160A     -0.845765   161A     -0.843169   162A     -0.834697
     163A     -0.834684   164A     -0.828223   165A     -0.828220
     166A     -0.784687   167A     -0.784676   168A     -0.783815
     169A     -0.783788   170A     -0.782434   171A     -0.782414
     172A     -0.782199   173A     -0.767122   174A     -0.760972
     175A     -0.750747   176A     -0.733597   177A     -0.727204
     178A     -0.727191   179A     -0.725229   180A     -0.724671
     181A     -0.724652   182A     -0.718675   183A     -0.713937
     184A     -0.713931   185A     -0.699706   186A     -0.699695
     187A     -0.686309   188A     -0.686072   189A     -0.686069
     190A     -0.682295   191A     -0.682284   192A     -0.678931
     193A     -0.653759   194A     -0.651008   195A     -0.650978
     196A     -0.649984   197A     -0.649969   198A     -0.649679
     199A     -0.641103   200A     -0.641077   201A     -0.640204
     202A     -0.639268   203A     -0.636175   204A     -0.636149
     205A     -0.629275   206A     -0.617664   207A     -0.615413
     208A     -0.615393   209A     -0.608926   210A     -0.608919
     211A     -0.599188   212A     -0.599151   213A     -0.598884
     214A     -0.598760   215A     -0.598733   216A     -0.598213
     217A     -0.595180   218A     -0.595167   219A     -0.594853
     220A     -0.594418   221A     -0.592101   222A     -0.592098
     223A     -0.587574   224A     -0.577885   225A     -0.577875
     226A     -0.575738   227A     -0.575734   228A     -0.573501
     229A     -0.569570   230A     -0.568311   231A     -0.568287
     232A     -0.566891   233A     -0.566880   234A     -0.561005
     235A     -0.558869   236A     -0.558851   237A     -0.558522
     238A     -0.554501   239A     -0.550634   240A     -0.547564
     241A     -0.544345   242A     -0.535041   243A     -0.535001
     244A     -0.533664   245A     -0.533641   246A     -0.528190
     247A     -0.528175   248A     -0.527971   249A     -0.517330
     250A     -0.517296   251A     -0.515430   252A     -0.515424
     253A     -0.509753   254A     -0.509736   255A     -0.498148
     256A     -0.496580   257A     -0.496554   258A     -0.493848
     259A     -0.493837   260A     -0.489480   261A     -0.481561
     262A     -0.477493   263A     -0.477490   264A     -0.474114
     265A     -0.469584   266A     -0.466661   267A     -0.466656
     268A     -0.458882   269A     -0.446875   270A     -0.446814
     271A     -0.441106   272A     -0.440830   273A     -0.440807
     274A     -0.434761   275A     -0.433978   276A     -0.407454
     277A     -0.407430   278A     -0.386491   279A     -0.386443
     280A     -0.385802   281A     -0.385801   282A     -0.383835
     283A     -0.354405   284A     -0.354389   285A     -0.350743
     286A     -0.338176   287A     -0.335677   288A     -0.335607
     289A     -0.332785   290A     -0.332778   291A     -0.307171
     292A     -0.302034   293A     -0.301971   294A     -0.300918
     295A     -0.286248   296A     -0.256532   297A     -0.253585
     298A     -0.253532   299A     -0.204342   300A     -0.204253

  @DF-RHF Final Energy: -3650.33756080329567

   => Energetics <=

    Nuclear Repulsion Energy =          15611.4211649754324753
    One-Electron Energy =              -36072.0731895427525160
    Two-Electron Energy =               16810.3144637640252768
    Total Energy =                      -3650.3375608032947639
 Dipole X            :         -0.0009131            0.0001983           -0.0007148
 Dipole Y            :          0.0010993           -0.0013163           -0.0002170
 Dipole Z            :        546.6530443         -546.6547794           -0.0017351
 Magnitude           :                                                    0.0018891

    SAPT Results
  --------------------------------------------------------------------------------------------------------
    Electrostatics                  8.34903591 [mEh]       5.23909913 [kcal/mol]      21.92039077 [kJ/mol]
      Elst10,r                      8.34903591 [mEh]       5.23909913 [kcal/mol]      21.92039077 [kJ/mol]

    Exchange                       -0.00015227 [mEh]      -0.00009555 [kcal/mol]      -0.00039978 [kJ/mol]
      Exch10                       -0.00015227 [mEh]      -0.00009555 [kcal/mol]      -0.00039978 [kJ/mol]
      Exch10(S^2)                  -0.00015227 [mEh]      -0.00009555 [kcal/mol]      -0.00039978 [kJ/mol]

    Induction                      -3.23712261 [mEh]      -2.03132511 [kcal/mol]      -8.49906425 [kJ/mol]
      Ind20,r                      -3.25384121 [mEh]      -2.04181619 [kcal/mol]      -8.54295893 [kJ/mol]
      Exch-Ind20,r                  0.00018425 [mEh]       0.00011562 [kcal/mol]       0.00048374 [kJ/mol]
      delta HF,r (2)                0.01653436 [mEh]       0.01037547 [kcal/mol]       0.04341095 [kJ/mol]

    Dispersion                     -0.47089338 [mEh]      -0.29549006 [kcal/mol]      -1.23633041 [kJ/mol]
      Disp20                       -0.47101241 [mEh]      -0.29556475 [kcal/mol]      -1.23664291 [kJ/mol]
      Exch-Disp20                   0.00011902 [mEh]       0.00007469 [kcal/mol]       0.00031250 [kJ/mol]
      Disp20 (SS)                  -0.23550620 [mEh]      -0.14778237 [kcal/mol]      -0.61832145 [kJ/mol]
      Disp20 (OS)                  -0.23550620 [mEh]      -0.14778237 [kcal/mol]      -0.61832145 [kJ/mol]
      Exch-Disp20 (SS)              0.00009169 [mEh]       0.00005754 [kcal/mol]       0.00024073 [kJ/mol]
      Exch-Disp20 (OS)              0.00002734 [mEh]       0.00001715 [kcal/mol]       0.00007177 [kJ/mol]

  Total HF                          5.11176103 [mEh]       3.20767848 [kcal/mol]      13.42092674 [kJ/mol]
  Total SAPT0                       4.64086765 [mEh]       2.91218842 [kcal/mol]      12.18459634 [kJ/mol]

  Special recipe for scaled SAPT0 (see Manual):
    Electrostatics sSAPT0           8.34903591 [mEh]       5.23909913 [kcal/mol]      21.92039077 [kJ/mol]
    Exchange sSAPT0                -0.00015227 [mEh]      -0.00009555 [kcal/mol]      -0.00039978 [kJ/mol]
    Induction sSAPT0               -3.23712261 [mEh]      -2.03132511 [kcal/mol]      -8.49906425 [kJ/mol]
    Dispersion sSAPT0              -0.47089338 [mEh]      -0.29549006 [kcal/mol]      -1.23633041 [kJ/mol]
  Total sSAPT0                      4.64086765 [mEh]       2.91218842 [kcal/mol]      12.18459634 [kJ/mol]
  --------------------------------------------------------------------------------------------------------

*** Psi4 exiting successfully. Buy a developer a beer!
