                               Psi4 1.9 release

  ==> Input File <==

--------------------------------------------------------------------------
memory 32 GB # how much memory is available ! Depends on the nodes/cores !

molecule dimer {
# monomer A
-1 1    # Charge and multiplicity
B -1.977592e-04  2.742729e-04 5.200034
F  1.123153e-16  1.430594e-17 6.612819
F  1.147860e+00  6.757812e-01 4.728893
F  1.191806e-02 -1.332011e+00 4.729095
F -1.159666e+00  6.560735e-01 4.729174
--
# monomer B
0 1     # Charge and multiplicity
C   1.22531237526482      0.70753866091955      0.00613762728373
C   1.22532433589282     -0.70753852257020     -0.00619318228664
C   -0.00000567409046      1.41496628609039     -0.00672680580738
C   2.45644923379077      1.41832825917820      0.00902448468363
C   0.00001130712078     -1.41497612663474      0.00347275151708
C   -1.22530046906674      0.70754574598412      0.00838914760619
C   2.45643823516184     -1.41832293188077     -0.00843833914343
C   -0.00000085313587      2.83680140328112     -0.00913035594137
C   3.68182717731192      0.70931832800114     -0.00808954934571
C   2.45512052870677      2.83422403348893     -0.00819210630633
C   3.68182158506039     -0.70933346742900      0.00798293467272
C   -1.22531311884624     -0.70752714354401     -0.00512042085974
C   1.22670006104402      3.54346985599427      0.00816696660346
C   0.00000526469929     -2.83678176723568      0.00832091913869
C   -2.45643555300670      1.41831729028492      0.00842454345199
C   2.45512389762097     -2.83422965658853      0.00783102630520
C   -1.22671388474763      3.54346943575023      0.00827029982280
C   4.91451777504333      1.42717324448953     -0.00160886631602
C   3.69315067131765      3.54279566454522     -0.00155906667985
C   -2.45643712022637     -1.41831290883911     -0.00846337726810
C   1.22670532178455     -3.54347386990643     -0.00780316414624
C   -2.45512491866593      2.83421703463423     -0.00818572995999
C   4.91452486062398     -1.42718653794377      0.00136387641845
C   1.22142509354026      4.97013443726031      0.00150231067809
C   4.89300870916237      2.82518837202648     -0.00039219795739
C   -1.22669652864725     -3.54347062507680     -0.00753595973677
C   -3.68181849668397      0.70932533873199     -0.00807686886569
C   3.69314758099218     -3.54280096939050      0.00148176697923
C   -1.22143177215231      4.97012866986289      0.00168580605083
C   6.13477145276790      0.68054831910577     -0.00083909176631
C   3.65678936045204      4.97295361556775     -0.00065042889723
C   -2.45512642789169     -2.83421472106065      0.00758666850712
C   -3.68181869921921     -0.70932533146830      0.00810055625144
C   4.89301309775526     -2.82519973363176      0.00021895393805
C   -0.00000059327114      5.65044773803267      0.00045449734393
C   6.13477559217374     -0.68055448207492      0.00042622874941
C   2.47813196269732      5.65357712333155      0.00063835075260
C   1.22142288457925     -4.97012668293268     -0.00129718634452
C   -3.69316190412301      3.54279732619245     -0.00139355922051
C   -1.22142804110313     -4.97011793159564     -0.00140994817719
C   -4.91452132810043      1.42717581899491     -0.00153192130862
C   3.65678749952045     -4.97295485423912      0.00080007163680
C   -2.47813805026426      5.65357479452875      0.00092287576113
C   -3.69314125872231     -3.54278984697859      0.00136564082345
C   -4.91451200321153     -1.42718062802730      0.00139857359209
C   -0.00000552908399     -5.65043791501335      0.00005899322272
C   -4.89302000425900      2.82518897091939     -0.00040227981744
C   2.47812647313991     -5.65357317188818     -0.00029052915548
C   -3.65679823041642      4.97295655404175     -0.00047374852278
C   -4.89299899901461     -2.82519139505969      0.00006491824035
C   -2.47812801824129     -5.65356579800621     -0.00056571680280
C   -6.13477002348955      0.68054913825639     -0.00086464346868
C   -3.65678835334731     -4.97294365097028      0.00058578382008
C   -6.13476456307132     -0.68055354348201      0.00040575295444
H   5.83528897565761      3.36927626695423      0.00396712770529
H   7.07385965258860      1.22821762089947     -0.00037744837300
H   4.60066374401555      5.51238117445323     -0.00014522814529
H   5.83528386714679     -3.36930568472863     -0.00423551337640
H   -0.00001167146422      6.73853104613662     -0.00389474766392
H   7.07386165167227     -1.22822657074368     -0.00008250934481
H   2.47331421164041      6.74068466339473      0.00017162982210
H   4.60066897122302     -5.51237575717576      0.00039007446835
H   -2.47331820069565      6.74068209160650      0.00047297644710
H   -0.00000978838621     -6.73852780445195      0.00458867820736
H   -5.83530143450167      3.36927132229595      0.00410314985360
H   2.47330840367253     -6.74068500242887      0.00027980126949
H   -4.60067436136587      5.51237839860371      0.00002010017831
H   -5.83527902699321     -3.36928859177951     -0.00451481925734
H   -2.47329986759855     -6.74067870613986     -0.00016951527498
H   -7.07385728692578      1.22822084484047     -0.00046143985387
H   -4.60067330624313     -5.51236229778631      0.00021776644566
H   -7.07385645456741     -1.22822025997701     -0.00017736581114

    units angstrom      # Angstroms are the default
    no_reorient         # Geometry fixed, default
    symmetry c1         # C1 symmetry, default
}

set {
    scf_type DF         # Density fitting, faster than exact integrals
    freeze_core True    # Freeze core electrons
    basis jun-cc-pVDZ   # Jun-cc-pVDZ basis set, recommended for sSAPT0 in https://doi.org/10.1063/1.4867135
}

energy('ssapt0')        # Compute sSAPT0 energy, includes also SAPT0
--------------------------------------------------------------------------

  //              Dimer HF             //
    Molecular point group: c1
  Charge       = -1
  Multiplicity = 1
  Basis Set: JUN-CC-PVDZ
    Blend: JUN-CC-PVDZ
  Basis Set: (JUN-CC-PVDZ AUX)
    Blend: JUN-CC-PVDZ-JKFIT
  @DF-RHF Final Energy: -2478.65909944458554
    Total Energy =                      -2478.6590994445850811
 Dipole X            :         -0.0005390            0.0000481           -0.0004909
 Dipole Y            :          0.0010178           -0.0001453            0.0008726
 Dipole Z            :         24.2246296          -31.8775788           -7.6529492
 Magnitude           :                                                    7.6529493
  //            Monomer A HF           //
    Molecular point group: c1
  Multiplicity = 1
  Basis Set: JUN-CC-PVDZ
    Blend: JUN-CC-PVDZ
  Basis Set: (JUN-CC-PVDZ AUX)
    Blend: JUN-CC-PVDZ-JKFIT
  @DF-RHF Final Energy:  -422.77185448363025
    Total Energy =                       -422.7718544836302499
  //            Monomer B HF           //
    Molecular point group: c1

    Geometry (in Angstrom), charge = 0, multiplicity = 1:

       Center              X                  Y                   Z               Mass
    ------------   -----------------  -----------------  -----------------  -----------------
      Gh(B)          -0.000198161052     0.000273808717     4.599333938238    11.009305360000
      Gh(F)          -0.000000401852    -0.000000464183     6.012118938238    18.998403162730
      Gh(F)           1.147859598148     0.675780735817     4.128192938238    18.998403162730
      Gh(F)           0.011917658148    -1.332011464183     4.128394938238    18.998403162730
      Gh(F)          -1.159666401852     0.656073035817     4.128473938238    18.998403162730
         C            1.225311973413     0.707538196736    -0.594562434478    12.000000000000
         C            1.225323934041    -0.707538986754    -0.606893244049    12.000000000000
         C           -0.000006075942     1.414965821907    -0.607426867569    12.000000000000
         C            2.456448831939     1.418327794995    -0.591675577078    12.000000000000
         C            0.000010905269    -1.414976590818    -0.597227310245    12.000000000000
         C           -1.225300870919     0.707545281801    -0.592310914156    12.000000000000
         C            2.456437833310    -1.418323396064    -0.609138400905    12.000000000000
         C           -0.000001254988     2.836800939098    -0.609830417703    12.000000000000
         C            3.681826775460     0.709317863818    -0.608789611108    12.000000000000
         C            2.455120126855     2.834223569306    -0.608892168068    12.000000000000
         C            3.681821183209    -0.709333931612    -0.592717127089    12.000000000000
         C           -1.225313520698    -0.707527607727    -0.605820482622    12.000000000000
         C            1.226699659192     3.543469391811    -0.592533095158    12.000000000000
         C            0.000004862847    -2.836782231419    -0.592379142623    12.000000000000
         C           -2.456435954859     1.418316826102    -0.592275518310    12.000000000000
         C            2.455123495769    -2.834230120772    -0.592869035457    12.000000000000
         C           -1.226714286599     3.543468971567    -0.592429761939    12.000000000000
         C            4.914517373191     1.427172780306    -0.602308928078    12.000000000000
         C            3.693150269466     3.542795200362    -0.602259128442    12.000000000000
         C           -2.456437522078    -1.418313373022    -0.609163439030    12.000000000000
         C            1.226704919933    -3.543474334090    -0.608503225908    12.000000000000
         C           -2.455125320518     2.834216570451    -0.608885791722    12.000000000000
         C            4.914524458772    -1.427187002127    -0.599336185343    12.000000000000
         C            1.221424691688     4.970133973077    -0.599197751084    12.000000000000
         C            4.893008307311     2.825187907843    -0.601092259719    12.000000000000
         C           -1.226696930499    -3.543471089260    -0.608236021499    12.000000000000
         C           -3.681818898536     0.709324874549    -0.608776930628    12.000000000000
         C            3.693147179140    -3.542801433574    -0.599218294783    12.000000000000
         C           -1.221432174004     4.970128205680    -0.599014255711    12.000000000000
         C            6.134771050916     0.680547854922    -0.601539153528    12.000000000000
         C            3.656788958600     4.972953151384    -0.601350490659    12.000000000000
         C           -2.455126829744    -2.834215185244    -0.593113393255    12.000000000000
         C           -3.681819101071    -0.709325795652    -0.592599505510    12.000000000000
         C            4.893012695903    -2.825200197815    -0.600481107824    12.000000000000
         C           -0.000000995123     5.650447273849    -0.600245564418    12.000000000000
         C            6.134775190322    -0.680554946258    -0.600273833013    12.000000000000
         C            2.478131560845     5.653576659148    -0.600061711009    12.000000000000
         C            1.221422482727    -4.970127147116    -0.601997248106    12.000000000000
         C           -3.693162305975     3.542796862009    -0.602093620982    12.000000000000
         C           -1.221428442955    -4.970118395779    -0.602110009939    12.000000000000
         C           -4.914521729952     1.427175354812    -0.602231983071    12.000000000000
         C            3.656787097669    -4.972955318422    -0.599899990125    12.000000000000
         C           -2.478138452116     5.653574330345    -0.599777186001    12.000000000000
         C           -3.693141660574    -3.542790311162    -0.599334420938    12.000000000000
         C           -4.914512405063    -1.427181092211    -0.599301488170    12.000000000000
         C           -0.000005930936    -5.650438379197    -0.600641068539    12.000000000000
         C           -4.893020406111     2.825188506736    -0.601102341579    12.000000000000
         C            2.478126071288    -5.653573636072    -0.600990590917    12.000000000000
         C           -3.656798632268     4.972956089858    -0.601173810285    12.000000000000
         C           -4.892999400866    -2.825191859243    -0.600635143522    12.000000000000
         C           -2.478128420093    -5.653566262190    -0.601265778565    12.000000000000
         C           -6.134770425341     0.680548674073    -0.601564705231    12.000000000000
         C           -3.656788755199    -4.972944115154    -0.600114277942    12.000000000000
         C           -6.134764964923    -0.680554007665    -0.600294308807    12.000000000000
         H            5.835288573806     3.369275802771    -0.596732934057     1.007825032230
         H            7.073859250737     1.228217156716    -0.601077510135     1.007825032230
         H            4.600663342164     5.512380710270    -0.600845289907     1.007825032230
         H            5.835283465295    -3.369306148912    -0.604935575138     1.007825032230
         H           -0.000012073316     6.738530581953    -0.604594809426     1.007825032230
         H            7.073861249820    -1.228227034927    -0.600782571107     1.007825032230
         H            2.473313809789     6.740684199211    -0.600528431940     1.007825032230
         H            4.600668569371    -5.512376221359    -0.600309987294     1.007825032230
         H           -2.473318602548     6.740681627423    -0.600227085315     1.007825032230
         H           -0.000010190238    -6.738528268635    -0.596111383555     1.007825032230
         H           -5.835301836354     3.369270858113    -0.596596911908     1.007825032230
         H            2.473308001821    -6.740685466612    -0.600420260492     1.007825032230
         H           -4.600674763218     5.512377934420    -0.600679961584     1.007825032230
         H           -5.835279428845    -3.369289055963    -0.605214881019     1.007825032230
         H           -2.473300269450    -6.740679170323    -0.600869577037     1.007825032230
         H           -7.073857688778     1.228220380657    -0.601161501616     1.007825032230
         H           -4.600673708095    -5.512362761970    -0.600482295316     1.007825032230
         H           -7.073856856419    -1.228220724160    -0.600877427573     1.007825032230

  Charge       = 0
  Multiplicity = 1
  Basis Set: JUN-CC-PVDZ
    Blend: JUN-CC-PVDZ
  Basis Set: (JUN-CC-PVDZ AUX)
    Blend: JUN-CC-PVDZ-JKFIT

    Orbital Energies [Eh]
    ---------------------

    Doubly Occupied:

       1A    -11.260615     2A    -11.260171     3A    -11.260170
       4A    -11.259458     5A    -11.259457     6A    -11.259287
       7A    -11.259074     8A    -11.258997     9A    -11.258996
      10A    -11.258673    11A    -11.258670    12A    -11.258599
      13A    -11.258539    14A    -11.258534    15A    -11.258531
      16A    -11.258502    17A    -11.258496    18A    -11.258480
      19A    -11.258467    20A    -11.258462    21A    -11.258457
      22A    -11.258359    23A    -11.258356    24A    -11.258059
      25A    -11.257388    26A    -11.257326    27A    -11.257325
      28A    -11.257191    29A    -11.257190    30A    -11.257106
      31A    -11.256481    32A    -11.256411    33A    -11.256410
      34A    -11.256301    35A    -11.256301    36A    -11.256254
      37A    -11.252348    38A    -11.252348    39A    -11.252346
      40A    -11.252345    41A    -11.252343    42A    -11.252341
      43A    -11.251471    44A    -11.251468    45A    -11.251468
      46A    -11.251460    47A    -11.251458    48A    -11.251455
      49A    -11.250910    50A    -11.250909    51A    -11.250907
      52A    -11.250905    53A    -11.250904    54A    -11.250902
      55A     -1.244165    56A     -1.219916    57A     -1.219915
      58A     -1.189639    59A     -1.189631    60A     -1.181046
      61A     -1.157650    62A     -1.149075    63A     -1.135593
      64A     -1.135587    65A     -1.113283    66A     -1.113278
      67A     -1.082531    68A     -1.082524    69A     -1.078702
      70A     -1.066069    71A     -1.066065    72A     -1.039493
      73A     -1.024380    74A     -1.021870    75A     -1.021827
      76A     -1.017818    77A     -1.012881    78A     -0.987121
      79A     -0.987075    80A     -0.961970    81A     -0.961921
      82A     -0.894385    83A     -0.894358    84A     -0.888041
      85A     -0.886291    86A     -0.886233    87A     -0.881499
      88A     -0.881451    89A     -0.861992    90A     -0.837493
      91A     -0.818305    92A     -0.816717    93A     -0.812236
      94A     -0.812227    95A     -0.794778    96A     -0.794767
      97A     -0.746730    98A     -0.744960    99A     -0.733517
     100A     -0.733508   101A     -0.732273   102A     -0.732250
     103A     -0.716595   104A     -0.699067   105A     -0.699056
     106A     -0.693683   107A     -0.693667   108A     -0.661321
     109A     -0.653210   110A     -0.651259   111A     -0.650342
     112A     -0.650336   113A     -0.639452   114A     -0.639449
     115A     -0.629812   116A     -0.627622   117A     -0.627606
     118A     -0.606482   119A     -0.605882   120A     -0.601763
     121A     -0.599831   122A     -0.599799   123A     -0.593734
     124A     -0.591325   125A     -0.591315   126A     -0.585359
     127A     -0.576397   128A     -0.576391   129A     -0.567410
     130A     -0.567395   131A     -0.566055   132A     -0.566036
     133A     -0.558825   134A     -0.554937   135A     -0.554931
     136A     -0.538683   137A     -0.538681   138A     -0.538244
     139A     -0.538238   140A     -0.529811   141A     -0.528196
     142A     -0.522964   143A     -0.522958   144A     -0.500593
     145A     -0.495667   146A     -0.493326   147A     -0.487895
     148A     -0.485171   149A     -0.481853   150A     -0.481845
     151A     -0.470399   152A     -0.470380   153A     -0.451126
     154A     -0.451048   155A     -0.439136   156A     -0.439127
     157A     -0.404814   158A     -0.404791   159A     -0.403439
     160A     -0.375489   161A     -0.375487   162A     -0.349190
     163A     -0.337658   164A     -0.336624   165A     -0.336566
     166A     -0.311163   167A     -0.298164   168A     -0.284416
     169A     -0.284362   170A     -0.224988   171A     -0.224923

  @DF-RHF Final Energy: -2055.89248366367792

   => Energetics <=

    Nuclear Repulsion Energy =           6452.5568002797772351
    One-Electron Energy =              -15636.4541851615849737
    Two-Electron Energy =                7128.0049012181298167
    Total Energy =                      -2055.8924836636779219
 Dipole X            :          0.0000446            0.0000419            0.0000865
 Dipole Y            :          0.0000245           -0.0000426           -0.0000181
 Dipole Z            :        388.2188661         -388.2256843           -0.0068182
 Magnitude           :                                                    0.0068188

    SAPT Results
  --------------------------------------------------------------------------------------------------------
    Electrostatics                 10.82153419 [mEh]       6.79061523 [kcal/mol]      28.41193411 [kJ/mol]
      Elst10,r                     10.82153419 [mEh]       6.79061523 [kcal/mol]      28.41193411 [kJ/mol]

    Exchange                        0.02179519 [mEh]       0.01367669 [kcal/mol]       0.05722328 [kJ/mol]
      Exch10                        0.02179519 [mEh]       0.01367669 [kcal/mol]       0.05722328 [kJ/mol]
      Exch10(S^2)                   0.02179573 [mEh]       0.01367703 [kcal/mol]       0.05722468 [kJ/mol]

    Induction                      -5.60462667 [mEh]      -3.51695633 [kcal/mol]     -14.71494528 [kJ/mol]
      Ind20,r                      -5.66774396 [mEh]      -3.55656303 [kcal/mol]     -14.88065973 [kJ/mol]
      Exch-Ind20,r                  0.00749768 [mEh]       0.00470487 [kcal/mol]       0.01968516 [kJ/mol]
      delta HF,r (2)                0.05561962 [mEh]       0.03490184 [kcal/mol]       0.14602929 [kJ/mol]

    Dispersion                     -1.67722615 [mEh]      -1.05247530 [kcal/mol]      -4.40355665 [kJ/mol]
      Disp20                       -1.68770812 [mEh]      -1.05905283 [kcal/mol]      -4.43107705 [kJ/mol]
      Exch-Disp20                   0.01048196 [mEh]       0.00657753 [kcal/mol]       0.02752039 [kJ/mol]
      Disp20 (SS)                  -0.84385406 [mEh]      -0.52952642 [kcal/mol]      -2.21553852 [kJ/mol]
      Disp20 (OS)                  -0.84385406 [mEh]      -0.52952642 [kcal/mol]      -2.21553852 [kJ/mol]
      Exch-Disp20 (SS)              0.00773602 [mEh]       0.00485443 [kcal/mol]       0.02031093 [kJ/mol]
      Exch-Disp20 (OS)              0.00274594 [mEh]       0.00172310 [kcal/mol]       0.00720946 [kJ/mol]

  Total HF                          5.23870272 [mEh]       3.28733559 [kcal/mol]      13.75421210 [kJ/mol]
  Total SAPT0                       3.56147657 [mEh]       2.23486029 [kcal/mol]       9.35065545 [kJ/mol]

  Special recipe for scaled SAPT0 (see Manual):
    Electrostatics sSAPT0          10.82153419 [mEh]       6.79061523 [kcal/mol]      28.41193411 [kJ/mol]
    Exchange sSAPT0                 0.02179519 [mEh]       0.01367669 [kcal/mol]       0.05722328 [kJ/mol]
    Induction sSAPT0               -5.60462722 [mEh]      -3.51695668 [kcal/mol]     -14.71494673 [kJ/mol]
    Dispersion sSAPT0              -1.67722692 [mEh]      -1.05247578 [kcal/mol]      -4.40355868 [kJ/mol]
  Total sSAPT0                      3.56147525 [mEh]       2.23485946 [kcal/mol]       9.35065197 [kJ/mol]
  --------------------------------------------------------------------------------------------------------

*** Psi4 exiting successfully. Buy a developer a beer!
