                               Psi4 1.9 release

  ==> Input File <==

--------------------------------------------------------------------------
memory 80 GB # how much memory is available ! Depends on the nodes/cores !

molecule dimer {
# monomer A
+1 1    # Charge and multiplicity
C  0.680067 -1.215929 3.408042
C -0.680504 -1.215545 3.406014
N -1.085635  0.102779 3.405016
C  0.000108  0.884180 3.401740
C -2.477365  0.570758 3.355610
N  1.085222  0.102779 3.405016
H  1.385146 -2.033368 3.415870
H -1.385302 -2.033214 3.406204
H -0.000009  1.965269 3.399993
C  2.478117  0.567877 3.421908
H  2.490592  1.658130 3.394563
H  2.967028  0.220701 4.335354
H  3.001428  0.176405 2.546425
H -2.857359  0.490799 2.333539
H -3.082679 -0.042306 4.025694
H -2.518128  1.610706 3.682594
--
# monomer B
0 1     # Charge and multiplicity
C   -3.66844126402057      7.80375217008252      0.00190004133558
C   -4.84759871934653      7.13124183134024     -0.00046653359696
C   -4.89495929917518      5.69633040353158     -0.00103944469517
C   -3.65374067877320      4.98073034095895      0.00662099703436
C   -2.40942512149445      7.11398103667468      0.00209438359570
C   -2.42547734410473      5.68112195090346     -0.00491050527438
C   -1.19474401643570      7.78614419430947      0.00356656413763
C   0.03795902893699      7.09942164575698      0.00139585983271
C   0.03033258741920      5.66948955970466     -0.00408752508301
C   -1.20098450790502      4.96927034791531      0.00488220885047
C   1.27795782581485      7.77285944319479      0.00277170839332
C   2.48535808472416      7.08769688523756      0.00049722048857
C   2.48612868491717      5.65477081024076     -0.00644052849921
C   1.25408291964399      4.95607811366431      0.00518741308898
C   3.75171459140595      7.76391215098033      0.00062407186893
C   4.92356605618520      7.07878077698995     -0.00143240883900
C   4.95560727132542      5.64344746336949     -0.00159282164606
C   3.70680153420475      4.94121020833308      0.00349873852374
H   -3.65852113775815      8.89082741913536      0.00358502958574
H   -1.18921332975660      8.87412108735996      0.00753844057883
H   1.28429423888630      8.86083343548850      0.00693053253426
H   3.75354208679975      8.85103527897216      0.00214659618464
H   5.86995870320703      7.61379483465560     -0.00235777588134
H   -5.78823170750226      7.67630221293400     -0.00202638095293
C   -6.09197395869619      4.99326001364347     -0.00291168518608
C   -6.12866148031747      3.58258016879823     -0.00171050815740
C   -3.66457974004527      3.56418217974434     -0.00463560277484
C   -4.89429820469869      2.86108077590057      0.00453338221034
C   -2.43733499489796      2.84761165708481      0.00719617576166
C   -1.20922785759670      3.54788693497833     -0.00648285103018
C   1.24714157216223      3.53468075142962     -0.00729145743546
C   0.01517603956900      2.83311183930540      0.00439272578912
C   2.46764517244071      2.82128997725533      0.00449278391269
C   3.70254947457969      3.52466015442405     -0.00899517692985
C   6.14498038638375      4.92757236613191     -0.00282626685777
C   6.16658835886151      3.51658447594213     -0.00065971342101
C   4.92460995845939      2.80840792535402      0.00587903281610
H   7.08990550964105      5.46688776622306     -0.00658814770723
H   -7.03104175110130      5.54268795285765     -0.00714490013730
C   -7.33969804112295      2.85841153457957     -0.00333767559888
C   -7.36488195805880      1.47032337158330     -0.00157213747140
C   -4.90350460894690      1.44442681216000     -0.00628840166334
C   -6.13225715261081      0.73993935705394      0.00600164231964
C   -3.67687480051673      0.72669714267312      0.00433931473643
C   -2.44565658606518      1.42964113326212     -0.00597039546461
C   -1.22360068130162      0.71532450163492      0.00545886906656
C   0.00763786931376      1.41738314923765      0.00392452278437
C   1.23121980774686      0.70211669058719     -0.01490206287210
C   2.46082110053113      1.40329203612573      0.00460244601878
C   3.68443025419614      0.68719842821222      0.00377365974158
C   4.91870890153864      1.39173456118907     -0.00862816189375
C   7.36980207796101      2.77948220318441     -0.00242013321349
C   7.38016266612146      1.39121750785509     -0.00087345036788
C   6.13979953912259      0.67411862320065      0.00545489144369
H   -8.27919079934664      3.40711804112415     -0.00763522772059
H   8.31511347147953      3.31811809662368     -0.00663070901292
C   -8.59175593758115      0.72483255304480     -0.00123170985383
C   -8.59902460370342     -0.63263980622873      0.00089141472904
C   -6.13981313911873     -0.67413663715361     -0.00609792660607
C   -7.38018411213749     -1.39126618958160      0.00131813493501
C   -4.91868448025621     -1.39175501803000      0.00624257154343
C   -3.68443829568458     -0.68723731573599     -0.00478966852105
C   -2.46081704024768     -1.40334517882457      0.00575341766833
C   -1.23116201232071     -0.70217386488055     -0.00636696112346
C   -0.00756962538737     -1.41741884941102      0.00108956317991
C   1.22364771588843     -0.71527537726392      0.01109518512883
C   2.44567064933149     -1.42964328900682     -0.00065482763106
C   3.67686670284649     -0.72670743155550     -0.00479541202602
C   6.13224884641929     -0.73997883984993     -0.00632338623858
C   4.90351914550401     -1.44445752054090      0.00751768830159
C   8.59901484869081      0.63260386666793     -0.00101133422380
C   8.59174548810050     -0.72485086719319      0.00072504603735
C   7.36486276438985     -1.47033266560598      0.00049486934466
H   -9.52830597181814      1.27684744919284     -0.00270163681798
H   9.54141097460619      1.17457248844457     -0.00206336648518
C   -7.36983790976868     -2.77954514593389      0.00312634335708
C   -4.92459910905015     -2.80843725734101     -0.00460528907921
C   -6.16662249566744     -3.51665219282533      0.00169655107992
C   -3.70251035970491     -3.52468154912026      0.00571878010666
C   -2.46764698511392     -2.82132596280400     -0.00632585824990
C   -0.01513347410770     -2.83314164539971     -0.00604426974092
C   -1.24712184122656     -3.53473217556300      0.00551968366725
C   1.20924506964357     -3.54791467864352      0.00805871345849
C   2.43733602215464     -2.84764173817541     -0.00608104485234
C   4.89430234377080     -2.86112296828604     -0.00526030478103
C   3.66461525504104     -3.56421984553201      0.00761911515957
C   6.12863901474565     -3.58258405771778      0.00096495711699
C   7.33967266469532     -2.85841330737039      0.00248018319869
H   -9.54144911125902     -1.17456346666430      0.00226083090216
H   9.52826186807155     -1.27691907390448      0.00197485379837
H   -8.31516504384864     -3.31814985321231      0.00729857188773
H   8.27915514249207     -3.40714078989363      0.00681973918158
C   -6.14499418870218     -4.92764727278338      0.00302254913999
C   -3.70678334799751     -4.94126171411716     -0.00679841894792
C   -4.95559005800169     -5.64349397349412      0.00116871569699
C   -2.48612132622665     -5.65478557440947      0.00614125209662
C   -1.25405833548005     -4.95612205000132     -0.00503435388927
C   1.20101257386816     -4.96928038819302     -0.00385322963129
C   -0.03033667441341     -5.66952030313900      0.00398997003238
C   3.65375010132847     -4.98074377541453     -0.00309522988330
C   2.42549269587528     -5.68117463552727      0.00628170066869
C   6.09196561781097     -4.99325796338655      0.00325918379042
C   4.89497644461045     -5.69634842095790      0.00202298796027
H   -7.08989238804069     -5.46699984223871      0.00742531082125
H   7.03105520920009     -5.54265853633254      0.00683896355417
C   -4.92354532219813     -7.07882109967734      0.00061394679214
C   -2.48534208823777     -7.08772807792913     -0.00189594564379
C   -3.75168589177895     -7.76394715763627     -0.00170126671874
C   -0.03794895698805     -7.09946487446944     -0.00168022049625
C   -1.27795610040136     -7.77290438466689     -0.00366491325785
C   2.40944432072629     -7.11402201200282     -0.00081701968533
C   1.19474993715296     -7.78618536556242     -0.00296931056689
C   4.84762105249800     -7.13126211057943      0.00168979497423
C   3.66847160587561     -7.80378799294376     -0.00065863938960
H   -5.86994035041618     -7.61383059804164      0.00215798365757
H   5.78824962538815     -7.67633218931421      0.00281691445618
H   -3.75352693944918     -8.85107156923607     -0.00353718114765
H   -1.28430440589466     -8.86087539249706     -0.00809229711623
H   1.18922157469537     -8.87416062058945     -0.00706194725726
H   3.65854661482387     -8.89086063405326     -0.00231318081200

    units angstrom      # Angstroms are the default
    no_reorient         # Geometry fixed, default
    symmetry c1         # C1 symmetry, default
}

set {
    scf_type DF         # Density fitting, faster than exact integrals
    freeze_core True    # Freeze core electrons
    basis jun-cc-pVDZ   # Jun-cc-pVDZ basis set, recommended for sSAPT0 in https://doi.org/10.1063/1.4867135
}

energy('ssapt0')        # Compute sSAPT0 energy, includes also SAPT0
--------------------------------------------------------------------------

  //              Dimer HF             //
    Molecular point group: c1
  Charge       = 1
  Multiplicity = 1
  Basis Set: JUN-CC-PVDZ
    Blend: JUN-CC-PVDZ
  Basis Set: (JUN-CC-PVDZ AUX)
    Blend: JUN-CC-PVDZ-JKFIT
  @DF-RHF Final Energy: -3953.65474671664015
    Total Energy =                      -3953.6547467166383285
 Dipole X            :          0.0009962            0.0004804            0.0014766
 Dipole Y            :         -1.6339039            1.8866171            0.2527132
 Dipole Z            :        -16.4573974           20.5923591            4.1349617
 Magnitude           :                                                    4.1426772
  //            Monomer A HF           //
    Molecular point group: c1
  Multiplicity = 1
  Basis Set: JUN-CC-PVDZ
    Blend: JUN-CC-PVDZ
  Basis Set: (JUN-CC-PVDZ AUX)
    Blend: JUN-CC-PVDZ-JKFIT
  @DF-RHF Final Energy:  -303.29928690631755
    Total Energy =                       -303.2992869063175476
  //            Monomer B HF           //
    Molecular point group: c1

    Geometry (in Angstrom), charge = 0, multiplicity = 1:

       Center              X                  Y                   Z               Mass
    ------------   -----------------  -----------------  -----------------  -----------------
      Gh(C)           0.680062820275    -1.215917226251     3.148815151959    12.000000000000
      Gh(C)          -0.680508179725    -1.215533226251     3.146787151959    12.000000000000
      Gh(N)          -1.085639179725     0.102790773749     3.145789151959    14.003074004430
      Gh(C)           0.000103820275     0.884191773749     3.142513151959    12.000000000000
      Gh(C)          -2.477369179725     0.570769773749     3.096383151959    12.000000000000
      Gh(N)           1.085217820275     0.102790773749     3.145789151959    14.003074004430
      Gh(H)           1.385141820275    -2.033356226251     3.156643151959     1.007825032230
      Gh(H)          -1.385306179725    -2.033202226251     3.146977151959     1.007825032230
      Gh(H)          -0.000013179725     1.965280773749     3.140766151959     1.007825032230
      Gh(C)           2.478112820275     0.567888773749     3.162681151959    12.000000000000
      Gh(H)           2.490587820275     1.658141773750     3.135336151959     1.007825032230
      Gh(H)           2.967023820275     0.220712773749     4.076127151959     1.007825032230
      Gh(H)           3.001423820275     0.176416773749     2.287198151959     1.007825032230
      Gh(H)          -2.857363179725     0.490810773749     2.074312151959     1.007825032230
      Gh(H)          -3.082683179725    -0.042294226251     3.766467151959     1.007825032230
      Gh(H)          -2.518132179725     1.610717773749     3.423367151959     1.007825032230
         C           -3.668445443746     7.803763943832    -0.257326806705    12.000000000000
         C           -4.847602899072     7.131253605090    -0.259693381638    12.000000000000
         C           -4.894963478901     5.696342177281    -0.260266292736    12.000000000000
         C           -3.653744858499     4.980742114708    -0.252605851006    12.000000000000
         C           -2.409429301220     7.113992810424    -0.257132464445    12.000000000000
         C           -2.425481523830     5.681133724653    -0.264137353315    12.000000000000
         C           -1.194748196161     7.786155968059    -0.255660283903    12.000000000000
         C            0.037954849212     7.099433419506    -0.257830988208    12.000000000000
         C            0.030328407694     5.669501333454    -0.263314373124    12.000000000000
         C           -1.200988687630     4.969282121665    -0.254344639190    12.000000000000
         C            1.277953646089     7.772871216944    -0.256455139647    12.000000000000
         C            2.485353904999     7.087708658987    -0.258729627552    12.000000000000
         C            2.486124505192     5.654782583990    -0.265667376540    12.000000000000
         C            1.254078739919     4.956089887414    -0.254039434952    12.000000000000
         C            3.751710411681     7.763923924730    -0.258602776172    12.000000000000
         C            4.923561876460     7.078792550739    -0.260659256880    12.000000000000
         C            4.955603091600     5.643459237119    -0.260819669687    12.000000000000
         C            3.706797354479     4.941221982083    -0.255728109517    12.000000000000
         H           -3.658525317484     8.890839192885    -0.255641818455     1.007825032230
         H           -1.189217509482     8.874132861109    -0.251688407462     1.007825032230
         H            1.284290059161     8.860845209238    -0.252296315507     1.007825032230
         H            3.753537907074     8.851047052722    -0.257080251856     1.007825032230
         H            5.869954523482     7.613806608405    -0.261584623922     1.007825032230
         H           -5.788235887228     7.676313986684    -0.261253228994     1.007825032230
         C           -6.091978138422     4.993271787393    -0.262138533227    12.000000000000
         C           -6.128665660043     3.582591942548    -0.260937356198    12.000000000000
         C           -3.664583919771     3.564193953494    -0.263862450816    12.000000000000
         C           -4.894302384424     2.861092549650    -0.254693465830    12.000000000000
         C           -2.437339174623     2.847623430834    -0.252030672279    12.000000000000
         C           -1.209232037322     3.547898708728    -0.265709699071    12.000000000000
         C            1.247137392437     3.534692525179    -0.266518305476    12.000000000000
         C            0.015171859844     2.833123613055    -0.254834122252    12.000000000000
         C            2.467640992715     2.821301751005    -0.254734064128    12.000000000000
         C            3.702545294854     3.524671928174    -0.268222024971    12.000000000000
         C            6.144976206658     4.927584139881    -0.262053114899    12.000000000000
         C            6.166584179136     3.516596249692    -0.259886561462    12.000000000000
         C            4.924605778734     2.808419699104    -0.253347815225    12.000000000000
         H            7.089901329916     5.466899539973    -0.265814995748     1.007825032230
         H           -7.031045930827     5.542699726607    -0.266371748178     1.007825032230
         C           -7.339702220848     2.858423308329    -0.262564523640    12.000000000000
         C           -7.364886137784     1.470335145333    -0.260798985512    12.000000000000
         C           -4.903508788672     1.444438585909    -0.265515249704    12.000000000000
         C           -6.132261332336     0.739951130803    -0.253225205721    12.000000000000
         C           -3.676878980242     0.726708916423    -0.254887533304    12.000000000000
         C           -2.445660765791     1.429652907012    -0.265197243505    12.000000000000
         C           -1.223604861027     0.715336275384    -0.253767978974    12.000000000000
         C            0.007633689588     1.417394922987    -0.255302325256    12.000000000000
         C            1.231215628021     0.702128464337    -0.274128910913    12.000000000000
         C            2.460816920806     1.403303809875    -0.254624402022    12.000000000000
         C            3.684426074471     0.687210201962    -0.255453188299    12.000000000000
         C            4.918704721813     1.391746334939    -0.267855009935    12.000000000000
         C            7.369797898236     2.779493976934    -0.261646981254    12.000000000000
         C            7.380158486396     1.391229281605    -0.260100298409    12.000000000000
         C            6.139795359397     0.674130396950    -0.253771956597    12.000000000000
         H           -8.279194979072     3.407129814874    -0.266862075761     1.007825032230
         H            8.315109291754     3.318129870373    -0.265857557054     1.007825032230
         C           -8.591760117307     0.724844326794    -0.260458557895    12.000000000000
         C           -8.599028783429    -0.632628032479    -0.258335433312    12.000000000000
         C           -6.139817318844    -0.674124863404    -0.265324774647    12.000000000000
         C           -7.380188291863    -1.391254415832    -0.257908713106    12.000000000000
         C           -4.918688659982    -1.391743244281    -0.252984276497    12.000000000000
         C           -3.684442475410    -0.687225541986    -0.264016516562    12.000000000000
         C           -2.460821219973    -1.403333405075    -0.253473430372    12.000000000000
         C           -1.231166192046    -0.702162091131    -0.265593809164    12.000000000000
         C           -0.007573805113    -1.417407075662    -0.258137284861    12.000000000000
         C            1.223643536163    -0.715263603514    -0.248131662912    12.000000000000
         C            2.445666469606    -1.429631515257    -0.259881675672    12.000000000000
         C            3.676862523121    -0.726695657806    -0.264022260067    12.000000000000
         C            6.132244666694    -0.739967066100    -0.265550234279    12.000000000000
         C            4.903514965779    -1.444445746791    -0.251709159739    12.000000000000
         C            8.599010668965     0.632615640417    -0.260238182265    12.000000000000
         C            8.591741308375    -0.724839093444    -0.258501802003    12.000000000000
         C            7.364858584664    -1.470320891856    -0.258731978696    12.000000000000
         H           -9.528310151544     1.276859222942    -0.261928484859     1.007825032230
         H            9.541406794881     1.174584262194    -0.261290214526     1.007825032230
         C           -7.369842089494    -2.779533372184    -0.256100504684    12.000000000000
         C           -4.924603288776    -2.808425483592    -0.263832137120    12.000000000000
         C           -6.166626675393    -3.516640419076    -0.257530296961    12.000000000000
         C           -3.702514539430    -3.524669775371    -0.253508067934    12.000000000000
         C           -2.467651164839    -2.821314189055    -0.265552706291    12.000000000000
         C           -0.015137653833    -2.833129871650    -0.265271117782    12.000000000000
         C           -1.247126020952    -3.534720401814    -0.253707164374    12.000000000000
         C            1.209240889918    -3.547902904894    -0.251168134582    12.000000000000
         C            2.437331842429    -2.847629964426    -0.265307892893    12.000000000000
         C            4.894298164045    -2.861111194537    -0.264487152822    12.000000000000
         C            3.664611075316    -3.564208071783    -0.251607732881    12.000000000000
         C            6.128634835020    -3.582572283968    -0.258261890924    12.000000000000
         C            7.339668484970    -2.858401533621    -0.256746664842    12.000000000000
         H           -9.541453290984    -1.174551692915    -0.256966017139     1.007825032230
         H            9.528257688346    -1.276907300155    -0.257251994242     1.007825032230
         H           -8.315169223574    -3.318138079463    -0.251928276153     1.007825032230
         H            8.279150962767    -3.407129016144    -0.252407108859     1.007825032230
         C           -6.144998368428    -4.927635499034    -0.256204298901    12.000000000000
         C           -3.706787527723    -4.941249940368    -0.266025266989    12.000000000000
         C           -4.955594237727    -5.643482199745    -0.258058132344    12.000000000000
         C           -2.486125505952    -5.654773800660    -0.253085595944    12.000000000000
         C           -1.254062515205    -4.956110276252    -0.264261201930    12.000000000000
         C            1.201008394143    -4.969268614444    -0.263080077672    12.000000000000
         C           -0.030340854139    -5.669508529390    -0.255236878008    12.000000000000
         C            3.653745921603    -4.980732001665    -0.262322077924    12.000000000000
         C            2.425488516150    -5.681162861778    -0.252945147372    12.000000000000
         C            6.091961438086    -4.993246189637    -0.255967664250    12.000000000000
         C            4.894972264885    -5.696336647208    -0.257203860081    12.000000000000
         H           -7.089896567766    -5.466988068489    -0.251801537220     1.007825032230
         H            7.031051029475    -5.542646762583    -0.252387884487     1.007825032230
         C           -4.923549501924    -7.078809325928    -0.258612901249    12.000000000000
         C           -2.485346267963    -7.087716304180    -0.261122793685    12.000000000000
         C           -3.751690071504    -7.763935383887    -0.260928114760    12.000000000000
         C           -0.037953136713    -7.099453100720    -0.260907068537    12.000000000000
         C           -1.277960280127    -7.772892610917    -0.262891761299    12.000000000000
         C            2.409440141001    -7.114010238253    -0.260043867726    12.000000000000
         C            1.194745757428    -7.786173591813    -0.262196158608    12.000000000000
         C            4.847616872773    -7.131250336830    -0.257537053067    12.000000000000
         C            3.668467426150    -7.803776219194    -0.259885487430    12.000000000000
         H           -5.869944530142    -7.613818824292    -0.257068864383     1.007825032230
         H            5.788245445663    -7.676320415565    -0.256409933585     1.007825032230
         H           -3.753531119175    -8.851059795487    -0.262764029188     1.007825032230
         H           -1.284308585620    -8.860863618748    -0.267319145157     1.007825032230
         H            1.189217394970    -8.874148846840    -0.266288795298     1.007825032230
         H            3.658542435098    -8.890848860304    -0.261540028853     1.007825032230

  Charge       = 0
  Multiplicity = 1
  Basis Set: JUN-CC-PVDZ
    Blend: JUN-CC-PVDZ
  Basis Set: (JUN-CC-PVDZ AUX)
    Blend: JUN-CC-PVDZ-JKFIT

    Orbital Energies [Eh]
    ---------------------

    Doubly Occupied:

       1A    -11.264078     2A    -11.263737     3A    -11.263701
       4A    -11.263323     5A    -11.263308     6A    -11.263231
       7A    -11.263124     8A    -11.263118     9A    -11.263066
      10A    -11.262846    11A    -11.262743    12A    -11.262711
      13A    -11.262231    14A    -11.262230    15A    -11.262200
      16A    -11.262177    17A    -11.262063    18A    -11.262053
      19A    -11.262025    20A    -11.261964    21A    -11.261962
      22A    -11.261865    23A    -11.261857    24A    -11.261692
      25A    -11.261688    26A    -11.261661    27A    -11.261653
      28A    -11.261615    29A    -11.261608    30A    -11.261515
      31A    -11.261507    32A    -11.261486    33A    -11.261484
      34A    -11.261467    35A    -11.261455    36A    -11.261442
      37A    -11.261264    38A    -11.261251    39A    -11.261248
      40A    -11.261243    41A    -11.261232    42A    -11.261224
      43A    -11.261217    44A    -11.261198    45A    -11.261196
      46A    -11.261170    47A    -11.261167    48A    -11.261154
      49A    -11.261008    50A    -11.260987    51A    -11.260959
      52A    -11.260926    53A    -11.260885    54A    -11.260849
      55A    -11.259831    56A    -11.259817    57A    -11.259808
      58A    -11.259786    59A    -11.259778    60A    -11.259760
      61A    -11.259199    62A    -11.259176    63A    -11.259165
      64A    -11.259118    65A    -11.259113    66A    -11.259083
      67A    -11.258832    68A    -11.258814    69A    -11.258806
      70A    -11.258784    71A    -11.258778    72A    -11.258761
      73A    -11.254473    74A    -11.254464    75A    -11.254464
      76A    -11.254460    77A    -11.254455    78A    -11.254448
      79A    -11.253588    80A    -11.253578    81A    -11.253570
      82A    -11.253566    83A    -11.253564    84A    -11.253560
      85A    -11.253503    86A    -11.253493    87A    -11.253485
      88A    -11.253481    89A    -11.253478    90A    -11.253473
      91A    -11.253000    92A    -11.252992    93A    -11.252991
      94A    -11.252988    95A    -11.252983    96A    -11.252976
      97A     -1.253784    98A     -1.238870    99A     -1.238841
     100A     -1.220343   101A     -1.220332   102A     -1.215301
     103A     -1.200934   104A     -1.195488   105A     -1.188009
     106A     -1.187990   107A     -1.173660   108A     -1.173657
     109A     -1.155489   110A     -1.155488   111A     -1.152576
     112A     -1.144622   113A     -1.144621   114A     -1.128439
     115A     -1.114573   116A     -1.113064   117A     -1.112353
     118A     -1.112324   119A     -1.111524   120A     -1.088302
     121A     -1.088285   122A     -1.076866   123A     -1.076864
     124A     -1.067487   125A     -1.067448   126A     -1.064832
     127A     -1.046682   128A     -1.046670   129A     -1.040357
     130A     -1.038642   131A     -1.038636   132A     -1.025097
     133A     -1.021235   134A     -1.021174   135A     -1.007067
     136A     -1.006675   137A     -1.003681   138A     -1.000355
     139A     -1.000300   140A     -0.990986   141A     -0.970861
     142A     -0.970808   143A     -0.955780   144A     -0.955721
     145A     -0.905460   146A     -0.905425   147A     -0.905417
     148A     -0.905392   149A     -0.904164   150A     -0.892201
     151A     -0.892145   152A     -0.890215   153A     -0.890163
     154A     -0.889314   155A     -0.872116   156A     -0.868977
     157A     -0.851426   158A     -0.847718   159A     -0.847706
     160A     -0.845449   161A     -0.842873   162A     -0.834438
     163A     -0.834426   164A     -0.828024   165A     -0.828015
     166A     -0.784434   167A     -0.784424   168A     -0.783526
     169A     -0.783512   170A     -0.782153   171A     -0.782136
     172A     -0.781890   173A     -0.766865   174A     -0.760635
     175A     -0.750432   176A     -0.733383   177A     -0.726953
     178A     -0.726917   179A     -0.724945   180A     -0.724422
     181A     -0.724389   182A     -0.718337   183A     -0.713626
     184A     -0.713621   185A     -0.699461   186A     -0.699439
     187A     -0.685969   188A     -0.685844   189A     -0.685834
     190A     -0.682052   191A     -0.682045   192A     -0.678651
     193A     -0.653508   194A     -0.650750   195A     -0.650718
     196A     -0.649657   197A     -0.649654   198A     -0.649456
     199A     -0.640784   200A     -0.640741   201A     -0.639968
     202A     -0.639052   203A     -0.635886   204A     -0.635853
     205A     -0.629010   206A     -0.617707   207A     -0.615198
     208A     -0.615171   209A     -0.608679   210A     -0.608672
     211A     -0.599087   212A     -0.599062   213A     -0.598613
     214A     -0.598450   215A     -0.598437   216A     -0.597889
     217A     -0.594956   218A     -0.594941   219A     -0.594596
     220A     -0.594066   221A     -0.591820   222A     -0.591817
     223A     -0.587225   224A     -0.577707   225A     -0.577689
     226A     -0.575643   227A     -0.575636   228A     -0.573257
     229A     -0.569532   230A     -0.567997   231A     -0.567971
     232A     -0.566620   233A     -0.566613   234A     -0.560821
     235A     -0.558584   236A     -0.558543   237A     -0.558331
     238A     -0.554237   239A     -0.550506   240A     -0.547381
     241A     -0.544199   242A     -0.534967   243A     -0.534954
     244A     -0.533415   245A     -0.533400   246A     -0.527965
     247A     -0.527946   248A     -0.527629   249A     -0.517022
     250A     -0.516994   251A     -0.515282   252A     -0.515277
     253A     -0.509527   254A     -0.509515   255A     -0.497899
     256A     -0.496327   257A     -0.496284   258A     -0.493741
     259A     -0.493716   260A     -0.489376   261A     -0.481336
     262A     -0.477340   263A     -0.477340   264A     -0.473869
     265A     -0.469287   266A     -0.466383   267A     -0.466381
     268A     -0.458730   269A     -0.446507   270A     -0.446456
     271A     -0.440962   272A     -0.440704   273A     -0.440673
     274A     -0.434610   275A     -0.433825   276A     -0.407294
     277A     -0.407273   278A     -0.386315   279A     -0.386261
     280A     -0.385652   281A     -0.385649   282A     -0.383665
     283A     -0.354233   284A     -0.354205   285A     -0.350571
     286A     -0.338025   287A     -0.335519   288A     -0.335463
     289A     -0.332627   290A     -0.332621   291A     -0.306954
     292A     -0.301846   293A     -0.301787   294A     -0.300745
     295A     -0.286076   296A     -0.256400   297A     -0.253396
     298A     -0.253346   299A     -0.204168   300A     -0.204085

  @DF-RHF Final Energy: -3650.34219843326673

   => Energetics <=

    Nuclear Repulsion Energy =          15611.4211649754324753
    One-Electron Energy =              -36072.2104118119241321
    Two-Electron Energy =               16810.4470484032244713
    Total Energy =                      -3650.3421984332671855
 Dipole X            :          0.0007091            0.0002112            0.0009203
 Dipole Y            :          0.0033296           -0.0044281           -0.0010985
 Dipole Z            :        293.9113487         -293.9172564           -0.0059076
 Magnitude           :                                                    0.0060790

    SAPT Results
  --------------------------------------------------------------------------------------------------------
    Electrostatics                -21.84844903 [mEh]     -13.71010876 [kcal/mol]     -57.36309504 [kJ/mol]
      Elst10,r                    -21.84844903 [mEh]     -13.71010876 [kcal/mol]     -57.36309504 [kJ/mol]

    Exchange                       26.48075684 [mEh]      16.61692579 [kcal/mol]      69.52521751 [kJ/mol]
      Exch10                       26.48075684 [mEh]      16.61692579 [kcal/mol]      69.52521751 [kJ/mol]
      Exch10(S^2)                  26.40027828 [mEh]      16.56642473 [kcal/mol]      69.31392108 [kJ/mol]

    Induction                     -17.89368487 [mEh]     -11.22845677 [kcal/mol]     -46.97986314 [kJ/mol]
      Ind20,r                     -23.38301753 [mEh]     -14.67306502 [kcal/mol]     -61.39210406 [kJ/mol]
      Exch-Ind20,r                  8.36809471 [mEh]       5.25105871 [kcal/mol]      21.97042962 [kJ/mol]
      delta HF,r (2)               -2.87876205 [mEh]      -1.80645046 [kcal/mol]      -7.55818871 [kJ/mol]

    Dispersion                    -37.93857661 [mEh]     -23.80681624 [kcal/mol]     -99.60771916 [kJ/mol]
      Disp20                      -40.95130804 [mEh]     -25.69733376 [kcal/mol]    -107.51764446 [kJ/mol]
      Exch-Disp20                   3.01273144 [mEh]       1.89051752 [kcal/mol]       7.90992530 [kJ/mol]
      Disp20 (SS)                 -20.47565402 [mEh]     -12.84866688 [kcal/mol]     -53.75882223 [kJ/mol]
      Disp20 (OS)                 -20.47565402 [mEh]     -12.84866688 [kcal/mol]     -53.75882223 [kJ/mol]
      Exch-Disp20 (SS)              1.83359632 [mEh]       1.15059906 [kcal/mol]       4.81410648 [kJ/mol]
      Exch-Disp20 (OS)              1.17913511 [mEh]       0.73991846 [kcal/mol]       3.09581882 [kJ/mol]

  Total HF                        -13.26137706 [mEh]      -8.32163974 [kcal/mol]     -34.81774066 [kJ/mol]
  Total SAPT0                     -51.19995366 [mEh]     -32.12845598 [kcal/mol]    -134.42545983 [kJ/mol]

  Special recipe for scaled SAPT0 (see Manual):
    Electrostatics sSAPT0         -21.84844903 [mEh]     -13.71010876 [kcal/mol]     -57.36309504 [kJ/mol]
    Exchange sSAPT0                26.48075684 [mEh]      16.61692579 [kcal/mol]      69.52521751 [kJ/mol]
    Induction sSAPT0              -17.81692348 [mEh]     -11.18028828 [kcal/mol]     -46.77832616 [kJ/mol]
    Dispersion sSAPT0             -37.91094052 [mEh]     -23.78947433 [kcal/mol]     -99.53516062 [kJ/mol]
  Total sSAPT0                    -51.09555619 [mEh]     -32.06294558 [kcal/mol]    -134.15136430 [kJ/mol]
  --------------------------------------------------------------------------------------------------------

*** Psi4 exiting successfully. Buy a developer a beer!
