                               Psi4 1.9 release

  ==> Input File <==

--------------------------------------------------------------------------
memory 32 GB # how much memory is available ! Depends on the nodes/cores !

molecule dimer {
# monomer A
+1 1    # Charge and multiplicity
C  0.680067 -0.008042 -7.815929
C -0.680504 -0.006014 -7.815545
N -1.085635 -0.005016 -6.497221
C  0.000108 -0.001740 -5.715820
C -2.477365  0.044390 -6.029242
N  1.085222 -0.005016 -6.497221
H  1.385146 -0.015870 -8.633368
H -1.385302 -0.006204 -8.633214
H -0.000009  0.000007 -4.634731
C  2.478117 -0.021908 -6.032123
H  2.490592  0.005437 -4.941870
H  2.967028 -0.935354 -6.379299
H  3.001428  0.853575 -6.423595
H -2.857359  1.066461 -6.109201
H -3.082679 -0.625694 -6.642306
H -2.518128 -0.282594 -4.989294
--
# monomer B
0 1     # Charge and multiplicity
C   1.22531237526482      0.70753866091955      0.00613762728373
C   1.22532433589282     -0.70753852257020     -0.00619318228664
C   -0.00000567409046      1.41496628609039     -0.00672680580738
C   2.45644923379077      1.41832825917820      0.00902448468363
C   0.00001130712078     -1.41497612663474      0.00347275151708
C   -1.22530046906674      0.70754574598412      0.00838914760619
C   2.45643823516184     -1.41832293188077     -0.00843833914343
C   -0.00000085313587      2.83680140328112     -0.00913035594137
C   3.68182717731192      0.70931832800114     -0.00808954934571
C   2.45512052870677      2.83422403348893     -0.00819210630633
C   3.68182158506039     -0.70933346742900      0.00798293467272
C   -1.22531311884624     -0.70752714354401     -0.00512042085974
C   1.22670006104402      3.54346985599427      0.00816696660346
C   0.00000526469929     -2.83678176723568      0.00832091913869
C   -2.45643555300670      1.41831729028492      0.00842454345199
C   2.45512389762097     -2.83422965658853      0.00783102630520
C   -1.22671388474763      3.54346943575023      0.00827029982280
C   4.91451777504333      1.42717324448953     -0.00160886631602
C   3.69315067131765      3.54279566454522     -0.00155906667985
C   -2.45643712022637     -1.41831290883911     -0.00846337726810
C   1.22670532178455     -3.54347386990643     -0.00780316414624
C   -2.45512491866593      2.83421703463423     -0.00818572995999
C   4.91452486062398     -1.42718653794377      0.00136387641845
C   1.22142509354026      4.97013443726031      0.00150231067809
C   4.89300870916237      2.82518837202648     -0.00039219795739
C   -1.22669652864725     -3.54347062507680     -0.00753595973677
C   -3.68181849668397      0.70932533873199     -0.00807686886569
C   3.69314758099218     -3.54280096939050      0.00148176697923
C   -1.22143177215231      4.97012866986289      0.00168580605083
C   6.13477145276790      0.68054831910577     -0.00083909176631
C   3.65678936045204      4.97295361556775     -0.00065042889723
C   -2.45512642789169     -2.83421472106065      0.00758666850712
C   -3.68181869921921     -0.70932533146830      0.00810055625144
C   4.89301309775526     -2.82519973363176      0.00021895393805
C   -0.00000059327114      5.65044773803267      0.00045449734393
C   6.13477559217374     -0.68055448207492      0.00042622874941
C   2.47813196269732      5.65357712333155      0.00063835075260
C   1.22142288457925     -4.97012668293268     -0.00129718634452
C   -3.69316190412301      3.54279732619245     -0.00139355922051
C   -1.22142804110313     -4.97011793159564     -0.00140994817719
C   -4.91452132810043      1.42717581899491     -0.00153192130862
C   3.65678749952045     -4.97295485423912      0.00080007163680
C   -2.47813805026426      5.65357479452875      0.00092287576113
C   -3.69314125872231     -3.54278984697859      0.00136564082345
C   -4.91451200321153     -1.42718062802730      0.00139857359209
C   -0.00000552908399     -5.65043791501335      0.00005899322272
C   -4.89302000425900      2.82518897091939     -0.00040227981744
C   2.47812647313991     -5.65357317188818     -0.00029052915548
C   -3.65679823041642      4.97295655404175     -0.00047374852278
C   -4.89299899901461     -2.82519139505969      0.00006491824035
C   -2.47812801824129     -5.65356579800621     -0.00056571680280
C   -6.13477002348955      0.68054913825639     -0.00086464346868
C   -3.65678835334731     -4.97294365097028      0.00058578382008
C   -6.13476456307132     -0.68055354348201      0.00040575295444
H   5.83528897565761      3.36927626695423      0.00396712770529
H   7.07385965258860      1.22821762089947     -0.00037744837300
H   4.60066374401555      5.51238117445323     -0.00014522814529
H   5.83528386714679     -3.36930568472863     -0.00423551337640
H   -0.00001167146422      6.73853104613662     -0.00389474766392
H   7.07386165167227     -1.22822657074368     -0.00008250934481
H   2.47331421164041      6.74068466339473      0.00017162982210
H   4.60066897122302     -5.51237575717576      0.00039007446835
H   -2.47331820069565      6.74068209160650      0.00047297644710
H   -0.00000978838621     -6.73852780445195      0.00458867820736
H   -5.83530143450167      3.36927132229595      0.00410314985360
H   2.47330840367253     -6.74068500242887      0.00027980126949
H   -4.60067436136587      5.51237839860371      0.00002010017831
H   -5.83527902699321     -3.36928859177951     -0.00451481925734
H   -2.47329986759855     -6.74067870613986     -0.00016951527498
H   -7.07385728692578      1.22822084484047     -0.00046143985387
H   -4.60067330624313     -5.51236229778631      0.00021776644566
H   -7.07385645456741     -1.22822025997701     -0.00017736581114

    units angstrom      # Angstroms are the default
    no_reorient         # Geometry fixed, default
    symmetry c1         # C1 symmetry, default
}

set {
    scf_type DF         # Density fitting, faster than exact integrals
    freeze_core True    # Freeze core electrons
    basis jun-cc-pVDZ   # Jun-cc-pVDZ basis set, recommended for sSAPT0 in https://doi.org/10.1063/1.4867135
}

energy('ssapt0')        # Compute sSAPT0 energy, includes also SAPT0
--------------------------------------------------------------------------

  //              Dimer HF             //
    Molecular point group: c1
  Charge       = 1
  Multiplicity = 1
  Basis Set: JUN-CC-PVDZ
    Blend: JUN-CC-PVDZ
  Basis Set: (JUN-CC-PVDZ AUX)
    Blend: JUN-CC-PVDZ-JKFIT
  @DF-RHF Final Energy: -2359.20153668661987
    Total Energy =                      -2359.2015366866198747
 Dipole X            :         -0.0013596            0.0006313           -0.0007283
 Dipole Y            :         -0.0483294            0.0560211            0.0076917
 Dipole Z            :         23.0709137          -32.5168618           -9.4459481
 Magnitude           :                                                    9.4459513
  //            Monomer A HF           //
    Molecular point group: c1
  Multiplicity = 1
  Basis Set: JUN-CC-PVDZ
    Blend: JUN-CC-PVDZ
  Basis Set: (JUN-CC-PVDZ AUX)
    Blend: JUN-CC-PVDZ-JKFIT
  @DF-RHF Final Energy:  -303.29731565167208
    Total Energy =                       -303.2973156516720792
  //            Monomer B HF           //
    Molecular point group: c1

    Geometry (in Angstrom), charge = 0, multiplicity = 1:

       Center              X                  Y                   Z               Mass
    ------------   -----------------  -----------------  -----------------  -----------------
      Gh(C)           0.680066520158    -0.008042372515    -6.976451766133    12.000000000000
      Gh(C)          -0.680504479842    -0.006014372515    -6.976067766133    12.000000000000
      Gh(N)          -1.085635479842    -0.005016372515    -5.657743766133    14.003074004430
      Gh(C)           0.000107520158    -0.001740372515    -4.876342766133    12.000000000000
      Gh(C)          -2.477365479842     0.044389627485    -5.189764766133    12.000000000000
      Gh(N)           1.085221520158    -0.005016372515    -5.657743766133    14.003074004430
      Gh(H)           1.385145520158    -0.015870372515    -7.793890766133     1.007825032230
      Gh(H)          -1.385302479842    -0.006204372515    -7.793736766133     1.007825032230
      Gh(H)          -0.000009479842     0.000006627485    -3.795253766133     1.007825032230
      Gh(C)           2.478116520158    -0.021908372515    -5.192645766133    12.000000000000
      Gh(H)           2.490591520158     0.005436627485    -4.102392766133     1.007825032230
      Gh(H)           2.967027520158    -0.935354372515    -5.539821766133     1.007825032230
      Gh(H)           3.001427520158     0.853574627485    -5.584117766133     1.007825032230
      Gh(H)          -2.857359479842     1.066460627485    -5.269723766133     1.007825032230
      Gh(H)          -3.082679479842    -0.625694372515    -5.802828766133     1.007825032230
      Gh(H)          -2.518128479842    -0.282594372515    -4.149816766133     1.007825032230
         C            1.225311895423     0.707538288405     0.845614861151    12.000000000000
         C            1.225323856051    -0.707538895085     0.833284051581    12.000000000000
         C           -0.000006153932     1.414965913575     0.832750428060    12.000000000000
         C            2.456448753949     1.418327886663     0.848501718551    12.000000000000
         C            0.000010827279    -1.414976499150     0.842949985385    12.000000000000
         C           -1.225300948908     0.707545373469     0.847866381474    12.000000000000
         C            2.456437755320    -1.418323304396     0.831038894724    12.000000000000
         C           -0.000001332978     2.836801030766     0.830346877926    12.000000000000
         C            3.681826697470     0.709317955486     0.831387684522    12.000000000000
         C            2.455120048865     2.834223660974     0.831285127561    12.000000000000
         C            3.681821105219    -0.709333839944     0.847460168540    12.000000000000
         C           -1.225313598688    -0.707527516059     0.834356813008    12.000000000000
         C            1.226699581202     3.543469483479     0.847644200471    12.000000000000
         C            0.000004784858    -2.836782139751     0.847798153006    12.000000000000
         C           -2.456436032848     1.418316917770     0.847901777319    12.000000000000
         C            2.455123417779    -2.834230029103     0.847308260173    12.000000000000
         C           -1.226714364589     3.543469063235     0.847747533690    12.000000000000
         C            4.914517295202     1.427172871975     0.837868367551    12.000000000000
         C            3.693150191476     3.542795292030     0.837918167188    12.000000000000
         C           -2.456437600068    -1.418313281354     0.831013856599    12.000000000000
         C            1.226704841943    -3.543474242421     0.831674069721    12.000000000000
         C           -2.455125398508     2.834216662119     0.831291503907    12.000000000000
         C            4.914524380782    -1.427186910459     0.840841110286    12.000000000000
         C            1.221424613699     4.970134064745     0.840979544546    12.000000000000
         C            4.893008229321     2.825187999512     0.839085035910    12.000000000000
         C           -1.226697008489    -3.543470997592     0.831941274131    12.000000000000
         C           -3.681818976526     0.709324966217     0.831400365002    12.000000000000
         C            3.693147101150    -3.542801341905     0.840959000847    12.000000000000
         C           -1.221432251994     4.970128297348     0.841163039918    12.000000000000
         C            6.134770972926     0.680547946591     0.838638142101    12.000000000000
         C            3.656788880610     4.972953243053     0.838826804970    12.000000000000
         C           -2.455126907733    -2.834215093576     0.847063902375    12.000000000000
         C           -3.681819179061    -0.709325703983     0.847577790119    12.000000000000
         C            4.893012617914    -2.825200106147     0.839696187806    12.000000000000
         C           -0.000001073113     5.650447365518     0.839931731211    12.000000000000
         C            6.134775112332    -0.680554854590     0.839903462617    12.000000000000
         C            2.478131482856     5.653576750817     0.840115584620    12.000000000000
         C            1.221422404738    -4.970127055448     0.838180047523    12.000000000000
         C           -3.693162383965     3.542796953677     0.838083674647    12.000000000000
         C           -1.221428520945    -4.970118304111     0.838067285690    12.000000000000
         C           -4.914521807942     1.427175446480     0.837945312559    12.000000000000
         C            3.656787019679    -4.972955226754     0.840277305504    12.000000000000
         C           -2.478138530106     5.653574422014     0.840400109629    12.000000000000
         C           -3.693141738564    -3.542790219494     0.840842874691    12.000000000000
         C           -4.914512483053    -1.427181000542     0.840875807460    12.000000000000
         C           -0.000006008926    -5.650438287528     0.839536227090    12.000000000000
         C           -4.893020484101     2.825188598404     0.839074954050    12.000000000000
         C            2.478125993298    -5.653573544403     0.839186704712    12.000000000000
         C           -3.656798710258     4.972956181527     0.839003485345    12.000000000000
         C           -4.892999478856    -2.825191767575     0.839542152108    12.000000000000
         C           -2.478128498083    -5.653566170521     0.838911517065    12.000000000000
         C           -6.134770503331     0.680548765741     0.838612590399    12.000000000000
         C           -3.656788833189    -4.972944023485     0.840063017688    12.000000000000
         C           -6.134765042913    -0.680553915997     0.839882986822    12.000000000000
         H            5.835288495816     3.369275894439     0.843444361573     1.007825032230
         H            7.073859172747     1.228217248385     0.839099785494     1.007825032230
         H            4.600663264174     5.512380801938     0.839332005722     1.007825032230
         H            5.835283387305    -3.369306057244     0.835241720491     1.007825032230
         H           -0.000012151306     6.738530673622     0.835582486204     1.007825032230
         H            7.073861171831    -1.228226943259     0.839394724523     1.007825032230
         H            2.473313731799     6.740684290880     0.839648863690     1.007825032230
         H            4.600668491381    -5.512376129691     0.839867308336     1.007825032230
         H           -2.473318680537     6.740681719092     0.839950210315     1.007825032230
         H           -0.000010268228    -6.738528176967     0.844065912075     1.007825032230
         H           -5.835301914343     3.369270949781     0.843580383721     1.007825032230
         H            2.473307923831    -6.740685374944     0.839757035137     1.007825032230
         H           -4.600674841208     5.512378026089     0.839497334046     1.007825032230
         H           -5.835279506835    -3.369288964294     0.834962414610     1.007825032230
         H           -2.473300347440    -6.740679078655     0.839307718592     1.007825032230
         H           -7.073857766768     1.228220472326     0.839015794014     1.007825032230
         H           -4.600673786085    -5.512362670301     0.839695000313     1.007825032230
         H           -7.073856934409    -1.228220632492     0.839299868056     1.007825032230

  Charge       = 0
  Multiplicity = 1
  Basis Set: JUN-CC-PVDZ
    Blend: JUN-CC-PVDZ
  Basis Set: (JUN-CC-PVDZ AUX)
    Blend: JUN-CC-PVDZ-JKFIT

    Orbital Energies [Eh]
    ---------------------

    Doubly Occupied:

       1A    -11.260625     2A    -11.260183     3A    -11.260179
       4A    -11.259469     5A    -11.259467     6A    -11.259297
       7A    -11.259087     8A    -11.259009     9A    -11.259008
      10A    -11.258685    11A    -11.258681    12A    -11.258611
      13A    -11.258549    14A    -11.258544    15A    -11.258542
      16A    -11.258513    17A    -11.258505    18A    -11.258490
      19A    -11.258478    20A    -11.258472    21A    -11.258466
      22A    -11.258370    23A    -11.258365    24A    -11.258069
      25A    -11.257404    26A    -11.257342    27A    -11.257341
      28A    -11.257206    29A    -11.257205    30A    -11.257121
      31A    -11.256498    32A    -11.256428    33A    -11.256427
      34A    -11.256318    35A    -11.256317    36A    -11.256270
      37A    -11.252356    38A    -11.252356    39A    -11.252354
      40A    -11.252353    41A    -11.252346    42A    -11.252344
      43A    -11.251481    44A    -11.251479    45A    -11.251476
      46A    -11.251471    47A    -11.251469    48A    -11.251465
      49A    -11.250918    50A    -11.250917    51A    -11.250915
      52A    -11.250914    53A    -11.250907    54A    -11.250906
      55A     -1.244202    56A     -1.219939    57A     -1.219932
      58A     -1.189653    59A     -1.189643    60A     -1.181079
      61A     -1.157660    62A     -1.149085    63A     -1.135623
      64A     -1.135611    65A     -1.113290    66A     -1.113287
      67A     -1.082549    68A     -1.082541    69A     -1.078729
      70A     -1.066077    71A     -1.066071    72A     -1.039505
      73A     -1.024401    74A     -1.021903    75A     -1.021854
      76A     -1.017823    77A     -1.012888    78A     -0.987140
      79A     -0.987091    80A     -0.961981    81A     -0.961930
      82A     -0.894396    83A     -0.894371    84A     -0.888069
      85A     -0.886317    86A     -0.886263    87A     -0.881515
      88A     -0.881469    89A     -0.862003    90A     -0.837495
      91A     -0.818315    92A     -0.816742    93A     -0.812254
      94A     -0.812248    95A     -0.794788    96A     -0.794777
      97A     -0.746750    98A     -0.744980    99A     -0.733540
     100A     -0.733537   101A     -0.732283   102A     -0.732260
     103A     -0.716617   104A     -0.699081   105A     -0.699064
     106A     -0.693701   107A     -0.693677   108A     -0.661331
     109A     -0.653242   110A     -0.651287   111A     -0.650351
     112A     -0.650345   113A     -0.639463   114A     -0.639453
     115A     -0.629831   116A     -0.627640   117A     -0.627627
     118A     -0.606493   119A     -0.605885   120A     -0.601779
     121A     -0.599850   122A     -0.599807   123A     -0.593744
     124A     -0.591359   125A     -0.591342   126A     -0.585363
     127A     -0.576440   128A     -0.576386   129A     -0.567417
     130A     -0.567400   131A     -0.566078   132A     -0.566062
     133A     -0.558851   134A     -0.554950   135A     -0.554948
     136A     -0.538692   137A     -0.538690   138A     -0.538254
     139A     -0.538248   140A     -0.529821   141A     -0.528208
     142A     -0.522981   143A     -0.522966   144A     -0.500601
     145A     -0.495681   146A     -0.493337   147A     -0.487904
     148A     -0.485184   149A     -0.481866   150A     -0.481861
     151A     -0.470392   152A     -0.470388   153A     -0.451152
     154A     -0.451078   155A     -0.439144   156A     -0.439135
     157A     -0.404823   158A     -0.404796   159A     -0.403453
     160A     -0.375499   161A     -0.375494   162A     -0.349201
     163A     -0.337658   164A     -0.336626   165A     -0.336577
     166A     -0.311174   167A     -0.298169   168A     -0.284421
     169A     -0.284374   170A     -0.224996   171A     -0.224933

  @DF-RHF Final Energy: -2055.89234734946922

   => Energetics <=

    Nuclear Repulsion Energy =           6452.5568002797781446
    One-Electron Energy =              -15636.4493085534104466
    Two-Electron Energy =                7128.0001609241626284
    Total Energy =                      -2055.8923473494687642
 Dipole X            :          0.0001004           -0.0000085            0.0000919
 Dipole Y            :         -0.0000616            0.0000167           -0.0000449
 Dipole Z            :       -542.5338320          542.5412217            0.0073898
 Magnitude           :                                                    0.0073905

    SAPT Results
  --------------------------------------------------------------------------------------------------------
    Electrostatics                 -8.53516586 [mEh]      -5.35589744 [kcal/mol]     -22.40907488 [kJ/mol]
      Elst10,r                     -8.53516586 [mEh]      -5.35589744 [kcal/mol]     -22.40907488 [kJ/mol]

    Exchange                        0.00341974 [mEh]       0.00214592 [kcal/mol]       0.00897852 [kJ/mol]
      Exch10                        0.00341974 [mEh]       0.00214592 [kcal/mol]       0.00897852 [kJ/mol]
      Exch10(S^2)                   0.00341973 [mEh]       0.00214591 [kcal/mol]       0.00897850 [kJ/mol]

    Induction                      -3.34193935 [mEh]      -2.09709861 [kcal/mol]      -8.77426056 [kJ/mol]
      Ind20,r                      -3.24974948 [mEh]      -2.03924859 [kcal/mol]      -8.53221609 [kJ/mol]
      Exch-Ind20,r                  0.00186308 [mEh]       0.00116910 [kcal/mol]       0.00489150 [kJ/mol]
      delta HF,r (2)               -0.09405295 [mEh]      -0.05901911 [kcal/mol]      -0.24693597 [kJ/mol]

    Dispersion                     -2.12528476 [mEh]      -1.33363632 [kcal/mol]      -5.57993436 [kJ/mol]
      Disp20                       -2.12623831 [mEh]      -1.33423469 [kcal/mol]      -5.58243793 [kJ/mol]
      Exch-Disp20                   0.00095356 [mEh]       0.00059837 [kcal/mol]       0.00250356 [kJ/mol]
      Disp20 (SS)                  -1.06311916 [mEh]      -0.66711734 [kcal/mol]      -2.79121896 [kJ/mol]
      Disp20 (OS)                  -1.06311916 [mEh]      -0.66711734 [kcal/mol]      -2.79121896 [kJ/mol]
      Exch-Disp20 (SS)              0.00069016 [mEh]       0.00043308 [kcal/mol]       0.00181202 [kJ/mol]
      Exch-Disp20 (OS)              0.00026339 [mEh]       0.00016528 [kcal/mol]       0.00069154 [kJ/mol]

  Total HF                        -11.87368548 [mEh]      -7.45085013 [kcal/mol]     -31.17435693 [kJ/mol]
  Total SAPT0                     -13.99897024 [mEh]      -8.78448645 [kcal/mol]     -36.75429129 [kJ/mol]

  Special recipe for scaled SAPT0 (see Manual):
    Electrostatics sSAPT0          -8.53516586 [mEh]      -5.35589744 [kcal/mol]     -22.40907488 [kJ/mol]
    Exchange sSAPT0                 0.00341974 [mEh]       0.00214592 [kcal/mol]       0.00897852 [kJ/mol]
    Induction sSAPT0               -3.34193935 [mEh]      -2.09709861 [kcal/mol]      -8.77426056 [kJ/mol]
    Dispersion sSAPT0              -2.12528476 [mEh]      -1.33363632 [kcal/mol]      -5.57993436 [kJ/mol]
  Total sSAPT0                    -13.99897024 [mEh]      -8.78448645 [kcal/mol]     -36.75429129 [kJ/mol]
  --------------------------------------------------------------------------------------------------------

*** Psi4 exiting successfully. Buy a developer a beer!
