                               Psi4 1.9 release

  ==> Input File <==

--------------------------------------------------------------------------
memory 32 GB # how much memory is available ! Depends on the nodes/cores !

molecule dimer {
# monomer A
+1 1    # Charge and multiplicity
C  0.680067 -1.215929 6.808042
C -0.680504 -1.215545 6.806014
N -1.085635  0.102779 6.805016
C  0.000108  0.884180 6.801740
C -2.477365  0.570758 6.755610
N  1.085222  0.102779 6.805016
H  1.385146 -2.033368 6.815870
H -1.385302 -2.033214 6.806204
H -0.000009  1.965269 6.799993
C  2.478117  0.567877 6.821908
H  2.490592  1.658130 6.794563
H  2.967028  0.220701 7.735354
H  3.001428  0.176405 5.946425
H -2.857359  0.490799 5.733539
H -3.082679 -0.042306 7.425694
H -2.518128  1.610706 7.082594
--
# monomer B
0 1     # Charge and multiplicity
C   1.22531237526482      0.70753866091955      0.00613762728373
C   1.22532433589282     -0.70753852257020     -0.00619318228664
C   -0.00000567409046      1.41496628609039     -0.00672680580738
C   2.45644923379077      1.41832825917820      0.00902448468363
C   0.00001130712078     -1.41497612663474      0.00347275151708
C   -1.22530046906674      0.70754574598412      0.00838914760619
C   2.45643823516184     -1.41832293188077     -0.00843833914343
C   -0.00000085313587      2.83680140328112     -0.00913035594137
C   3.68182717731192      0.70931832800114     -0.00808954934571
C   2.45512052870677      2.83422403348893     -0.00819210630633
C   3.68182158506039     -0.70933346742900      0.00798293467272
C   -1.22531311884624     -0.70752714354401     -0.00512042085974
C   1.22670006104402      3.54346985599427      0.00816696660346
C   0.00000526469929     -2.83678176723568      0.00832091913869
C   -2.45643555300670      1.41831729028492      0.00842454345199
C   2.45512389762097     -2.83422965658853      0.00783102630520
C   -1.22671388474763      3.54346943575023      0.00827029982280
C   4.91451777504333      1.42717324448953     -0.00160886631602
C   3.69315067131765      3.54279566454522     -0.00155906667985
C   -2.45643712022637     -1.41831290883911     -0.00846337726810
C   1.22670532178455     -3.54347386990643     -0.00780316414624
C   -2.45512491866593      2.83421703463423     -0.00818572995999
C   4.91452486062398     -1.42718653794377      0.00136387641845
C   1.22142509354026      4.97013443726031      0.00150231067809
C   4.89300870916237      2.82518837202648     -0.00039219795739
C   -1.22669652864725     -3.54347062507680     -0.00753595973677
C   -3.68181849668397      0.70932533873199     -0.00807686886569
C   3.69314758099218     -3.54280096939050      0.00148176697923
C   -1.22143177215231      4.97012866986289      0.00168580605083
C   6.13477145276790      0.68054831910577     -0.00083909176631
C   3.65678936045204      4.97295361556775     -0.00065042889723
C   -2.45512642789169     -2.83421472106065      0.00758666850712
C   -3.68181869921921     -0.70932533146830      0.00810055625144
C   4.89301309775526     -2.82519973363176      0.00021895393805
C   -0.00000059327114      5.65044773803267      0.00045449734393
C   6.13477559217374     -0.68055448207492      0.00042622874941
C   2.47813196269732      5.65357712333155      0.00063835075260
C   1.22142288457925     -4.97012668293268     -0.00129718634452
C   -3.69316190412301      3.54279732619245     -0.00139355922051
C   -1.22142804110313     -4.97011793159564     -0.00140994817719
C   -4.91452132810043      1.42717581899491     -0.00153192130862
C   3.65678749952045     -4.97295485423912      0.00080007163680
C   -2.47813805026426      5.65357479452875      0.00092287576113
C   -3.69314125872231     -3.54278984697859      0.00136564082345
C   -4.91451200321153     -1.42718062802730      0.00139857359209
C   -0.00000552908399     -5.65043791501335      0.00005899322272
C   -4.89302000425900      2.82518897091939     -0.00040227981744
C   2.47812647313991     -5.65357317188818     -0.00029052915548
C   -3.65679823041642      4.97295655404175     -0.00047374852278
C   -4.89299899901461     -2.82519139505969      0.00006491824035
C   -2.47812801824129     -5.65356579800621     -0.00056571680280
C   -6.13477002348955      0.68054913825639     -0.00086464346868
C   -3.65678835334731     -4.97294365097028      0.00058578382008
C   -6.13476456307132     -0.68055354348201      0.00040575295444
H   5.83528897565761      3.36927626695423      0.00396712770529
H   7.07385965258860      1.22821762089947     -0.00037744837300
H   4.60066374401555      5.51238117445323     -0.00014522814529
H   5.83528386714679     -3.36930568472863     -0.00423551337640
H   -0.00001167146422      6.73853104613662     -0.00389474766392
H   7.07386165167227     -1.22822657074368     -0.00008250934481
H   2.47331421164041      6.74068466339473      0.00017162982210
H   4.60066897122302     -5.51237575717576      0.00039007446835
H   -2.47331820069565      6.74068209160650      0.00047297644710
H   -0.00000978838621     -6.73852780445195      0.00458867820736
H   -5.83530143450167      3.36927132229595      0.00410314985360
H   2.47330840367253     -6.74068500242887      0.00027980126949
H   -4.60067436136587      5.51237839860371      0.00002010017831
H   -5.83527902699321     -3.36928859177951     -0.00451481925734
H   -2.47329986759855     -6.74067870613986     -0.00016951527498
H   -7.07385728692578      1.22822084484047     -0.00046143985387
H   -4.60067330624313     -5.51236229778631      0.00021776644566
H   -7.07385645456741     -1.22822025997701     -0.00017736581114

    units angstrom      # Angstroms are the default
    no_reorient         # Geometry fixed, default
    symmetry c1         # C1 symmetry, default
}

set {
    scf_type DF         # Density fitting, faster than exact integrals
    freeze_core True    # Freeze core electrons
    basis jun-cc-pVDZ   # Jun-cc-pVDZ basis set, recommended for sSAPT0 in https://doi.org/10.1063/1.4867135
}

energy('ssapt0')        # Compute sSAPT0 energy, includes also SAPT0
--------------------------------------------------------------------------

  //              Dimer HF             //
    Molecular point group: c1
  Charge       = 1
  Multiplicity = 1
  Basis Set: JUN-CC-PVDZ
    Blend: JUN-CC-PVDZ
  Basis Set: (JUN-CC-PVDZ AUX)
    Blend: JUN-CC-PVDZ-JKFIT
  @DF-RHF Final Energy: -2359.19835685912403
    Total Energy =                      -2359.1983568591240328
 Dipole X            :          0.0030046            0.0006313            0.0036359
 Dipole Y            :         -1.5136050            1.8864948            0.3728898
 Dipole Z            :        -25.0039317           35.3902662           10.3863345
 Magnitude           :                                                   10.3930267
  //            Monomer A HF           //
    Molecular point group: c1
  Multiplicity = 1
  Basis Set: JUN-CC-PVDZ
    Blend: JUN-CC-PVDZ
  Basis Set: (JUN-CC-PVDZ AUX)
    Blend: JUN-CC-PVDZ-JKFIT
  @DF-RHF Final Energy:  -303.29727319882676
    Total Energy =                       -303.2972731988267583
  //            Monomer B HF           //
    Molecular point group: c1

    Geometry (in Angstrom), charge = 0, multiplicity = 1:

       Center              X                  Y                   Z               Mass
    ------------   -----------------  -----------------  -----------------  -----------------
      Gh(C)           0.680066520158    -1.215933861162     5.943125903659    12.000000000000
      Gh(C)          -0.680504479842    -1.215549861162     5.941097903659    12.000000000000
      Gh(N)          -1.085635479842     0.102774138838     5.940099903659    14.003074004430
      Gh(C)           0.000107520158     0.884175138838     5.936823903659    12.000000000000
      Gh(C)          -2.477365479842     0.570753138838     5.890693903659    12.000000000000
      Gh(N)           1.085221520158     0.102774138838     5.940099903659    14.003074004430
      Gh(H)           1.385145520158    -2.033372861162     5.950953903659     1.007825032230
      Gh(H)          -1.385302479842    -2.033218861162     5.941287903659     1.007825032230
      Gh(H)          -0.000009479842     1.965264138838     5.935076903659     1.007825032230
      Gh(C)           2.478116520158     0.567872138838     5.956991903659    12.000000000000
      Gh(H)           2.490591520158     1.658125138838     5.929646903659     1.007825032230
      Gh(H)           2.967027520158     0.220696138838     6.870437903659     1.007825032230
      Gh(H)           3.001427520158     0.176400138838     5.081508903659     1.007825032230
      Gh(H)          -2.857359479842     0.490794138838     4.868622903659     1.007825032230
      Gh(H)          -3.082679479842    -0.042310861162     6.560777903659     1.007825032230
      Gh(H)          -2.518128479842     1.610701138838     6.217677903659     1.007825032230
         C            1.225311895423     0.707533799757    -0.858778469057    12.000000000000
         C            1.225323856051    -0.707543383733    -0.871109278627    12.000000000000
         C           -0.000006153932     1.414961424928    -0.871642902148    12.000000000000
         C            2.456448753949     1.418323398016    -0.855891611657    12.000000000000
         C            0.000010827279    -1.414980987797    -0.861443344824    12.000000000000
         C           -1.225300948908     0.707540884822    -0.856526948734    12.000000000000
         C            2.456437755320    -1.418327793043    -0.873354435484    12.000000000000
         C           -0.000001332978     2.836796542119    -0.874046452282    12.000000000000
         C            3.681826697470     0.709313466839    -0.873005645686    12.000000000000
         C            2.455120048865     2.834219172327    -0.873108202647    12.000000000000
         C            3.681821105219    -0.709338328591    -0.856933161668    12.000000000000
         C           -1.225313598688    -0.707532004706    -0.870036517200    12.000000000000
         C            1.226699581202     3.543464994832    -0.856749129737    12.000000000000
         C            0.000004784858    -2.836786628398    -0.856595177202    12.000000000000
         C           -2.456436032848     1.418312429123    -0.856491552889    12.000000000000
         C            2.455123417779    -2.834234517751    -0.857085070035    12.000000000000
         C           -1.226714364589     3.543464574588    -0.856645796518    12.000000000000
         C            4.914517295202     1.427168383327    -0.866524962657    12.000000000000
         C            3.693150191476     3.542790803383    -0.866475163021    12.000000000000
         C           -2.456437600068    -1.418317770001    -0.873379473609    12.000000000000
         C            1.226704841943    -3.543478731069    -0.872719260487    12.000000000000
         C           -2.455125398508     2.834212173472    -0.873101826301    12.000000000000
         C            4.914524380782    -1.427191399106    -0.863552219922    12.000000000000
         C            1.221424613699     4.970129576098    -0.863413785663    12.000000000000
         C            4.893008229321     2.825183510864    -0.865308294298    12.000000000000
         C           -1.226697008489    -3.543475486239    -0.872452056077    12.000000000000
         C           -3.681818976526     0.709320477570    -0.872992965206    12.000000000000
         C            3.693147101150    -3.542805830553    -0.863434329361    12.000000000000
         C           -1.221432251994     4.970123808701    -0.863230290290    12.000000000000
         C            6.134770972926     0.680543457943    -0.865755188107    12.000000000000
         C            3.656788880610     4.972948754405    -0.865566525238    12.000000000000
         C           -2.455126907733    -2.834219582223    -0.857329427834    12.000000000000
         C           -3.681819179061    -0.709330192631    -0.856815540089    12.000000000000
         C            4.893012617914    -2.825204594794    -0.864697142403    12.000000000000
         C           -0.000001073113     5.650442876870    -0.864461598997    12.000000000000
         C            6.134775112332    -0.680559343237    -0.864489867591    12.000000000000
         C            2.478131482856     5.653572262169    -0.864277745588    12.000000000000
         C            1.221422404738    -4.970131544095    -0.866213282685    12.000000000000
         C           -3.693162383965     3.542792465030    -0.866309655561    12.000000000000
         C           -1.221428520945    -4.970122792758    -0.866326044518    12.000000000000
         C           -4.914521807942     1.427170957833    -0.866448017649    12.000000000000
         C            3.656787019679    -4.972959715401    -0.864116024704    12.000000000000
         C           -2.478138530106     5.653569933366    -0.863993220580    12.000000000000
         C           -3.693141738564    -3.542794708141    -0.863550455517    12.000000000000
         C           -4.914512483053    -1.427185489190    -0.863517522749    12.000000000000
         C           -0.000006008926    -5.650442776176    -0.864857103118    12.000000000000
         C           -4.893020484101     2.825184109757    -0.865318376158    12.000000000000
         C            2.478125993298    -5.653578033051    -0.865206625496    12.000000000000
         C           -3.656798710258     4.972951692879    -0.865389844863    12.000000000000
         C           -4.892999478856    -2.825196256222    -0.864851178100    12.000000000000
         C           -2.478128498083    -5.653570659169    -0.865481813143    12.000000000000
         C           -6.134770503331     0.680544277094    -0.865780739809    12.000000000000
         C           -3.656788833189    -4.972948512133    -0.864330312521    12.000000000000
         C           -6.134765042913    -0.680558404644    -0.864510343386    12.000000000000
         H            5.835288495816     3.369271405792    -0.860948968635     1.007825032230
         H            7.073859172747     1.228212759737    -0.865293544714     1.007825032230
         H            4.600663264174     5.512376313291    -0.865061324486     1.007825032230
         H            5.835283387305    -3.369310545891    -0.869151609717     1.007825032230
         H           -0.000012151306     6.738526184974    -0.868810844005     1.007825032230
         H            7.073861171831    -1.228231431906    -0.864998605685     1.007825032230
         H            2.473313731799     6.740679802232    -0.864744466519     1.007825032230
         H            4.600668491381    -5.512380618338    -0.864526021872     1.007825032230
         H           -2.473318680537     6.740677230444    -0.864443119894     1.007825032230
         H           -0.000010268228    -6.738532665614    -0.860327418133     1.007825032230
         H           -5.835301914343     3.369266461134    -0.860812946487     1.007825032230
         H            2.473307923831    -6.740689863591    -0.864636295071     1.007825032230
         H           -4.600674841208     5.512373537441    -0.864895996162     1.007825032230
         H           -5.835279506835    -3.369293452942    -0.869430915598     1.007825032230
         H           -2.473300347440    -6.740683567302    -0.865085611616     1.007825032230
         H           -7.073857766768     1.228215983678    -0.865377536195     1.007825032230
         H           -4.600673786085    -5.512367158949    -0.864698329895     1.007825032230
         H           -7.073856934409    -1.228225121139    -0.865093462152     1.007825032230

  Charge       = 0
  Multiplicity = 1
  Basis Set: JUN-CC-PVDZ
    Blend: JUN-CC-PVDZ
  Basis Set: (JUN-CC-PVDZ AUX)
    Blend: JUN-CC-PVDZ-JKFIT

    Orbital Energies [Eh]
    ---------------------

    Doubly Occupied:

       1A    -11.260650     2A    -11.260207     3A    -11.260205
       4A    -11.259497     5A    -11.259497     6A    -11.259328
       7A    -11.259119     8A    -11.259042     9A    -11.259041
      10A    -11.258717    11A    -11.258713    12A    -11.258646
      13A    -11.258583    14A    -11.258578    15A    -11.258575
      16A    -11.258547    17A    -11.258540    18A    -11.258524
      19A    -11.258511    20A    -11.258506    21A    -11.258500
      22A    -11.258400    23A    -11.258397    24A    -11.258096
      25A    -11.257439    26A    -11.257377    27A    -11.257376
      28A    -11.257242    29A    -11.257241    30A    -11.257157
      31A    -11.256534    32A    -11.256463    33A    -11.256463
      34A    -11.256353    35A    -11.256353    36A    -11.256306
      37A    -11.252385    38A    -11.252384    39A    -11.252383
      40A    -11.252382    41A    -11.252379    42A    -11.252377
      43A    -11.251516    44A    -11.251513    45A    -11.251512
      46A    -11.251507    47A    -11.251506    48A    -11.251501
      49A    -11.250946    50A    -11.250946    51A    -11.250944
      52A    -11.250942    53A    -11.250940    54A    -11.250939
      55A     -1.244264    56A     -1.219989    57A     -1.219988
      58A     -1.189700    59A     -1.189692    60A     -1.181137
      61A     -1.157701    62A     -1.149131    63A     -1.135677
      64A     -1.135670    65A     -1.113334    66A     -1.113330
      67A     -1.082602    68A     -1.082595    69A     -1.078783
      70A     -1.066118    71A     -1.066114    72A     -1.039553
      73A     -1.024458    74A     -1.021962    75A     -1.021918
      76A     -1.017866    77A     -1.012929    78A     -0.987192
      79A     -0.987146    80A     -0.962026    81A     -0.961976
      82A     -0.894444    83A     -0.894417    84A     -0.888133
      85A     -0.886380    86A     -0.886323    87A     -0.881571
      88A     -0.881523    89A     -0.862050    90A     -0.837533
      91A     -0.818364    92A     -0.816801    93A     -0.812310
      94A     -0.812302    95A     -0.794832    96A     -0.794821
      97A     -0.746808    98A     -0.745036    99A     -0.733601
     100A     -0.733594   101A     -0.732329   102A     -0.732306
     103A     -0.716671   104A     -0.699126   105A     -0.699114
     106A     -0.693749   107A     -0.693733   108A     -0.661376
     109A     -0.653303   110A     -0.651347   111A     -0.650395
     112A     -0.650389   113A     -0.639506   114A     -0.639502
     115A     -0.629885   116A     -0.627696   117A     -0.627681
     118A     -0.606452   119A     -0.605918   120A     -0.601836
     121A     -0.599894   122A     -0.599861   123A     -0.593795
     124A     -0.591420   125A     -0.591408   126A     -0.585401
     127A     -0.576418   128A     -0.576406   129A     -0.567458
     130A     -0.567443   131A     -0.566136   132A     -0.566117
     133A     -0.558910   134A     -0.554999   135A     -0.554993
     136A     -0.538737   137A     -0.538735   138A     -0.538278
     139A     -0.538271   140A     -0.529870   141A     -0.528198
     142A     -0.523026   143A     -0.523019   144A     -0.500645
     145A     -0.495704   146A     -0.493383   147A     -0.487932
     148A     -0.485238   149A     -0.481920   150A     -0.481912
     151A     -0.470422   152A     -0.470407   153A     -0.451217
     154A     -0.451140   155A     -0.439173   156A     -0.439164
     157A     -0.404853   158A     -0.404830   159A     -0.403474
     160A     -0.375528   161A     -0.375525   162A     -0.349230
     163A     -0.337696   164A     -0.336663   165A     -0.336606
     166A     -0.311207   167A     -0.298197   168A     -0.284461
     169A     -0.284408   170A     -0.225031   171A     -0.224966

  @DF-RHF Final Energy: -2055.89188254401779

   => Energetics <=

    Nuclear Repulsion Energy =           6452.5568002797772351
    One-Electron Energy =              -15636.4344039458410407
    Two-Electron Energy =                7127.9857211220460158
    Total Energy =                      -2055.8918825440177898
 Dipole X            :          0.0001017           -0.0000085            0.0000932
 Dipole Y            :          0.0028635           -0.0028843           -0.0000207
 Dipole Z            :        558.9807110         -558.9848969           -0.0041859
 Magnitude           :                                                    0.0041870

    SAPT Results
  --------------------------------------------------------------------------------------------------------
    Electrostatics                 -7.16741231 [mEh]      -4.49761913 [kcal/mol]     -18.81803843 [kJ/mol]
      Elst10,r                     -7.16741231 [mEh]      -4.49761913 [kcal/mol]     -18.81803843 [kJ/mol]

    Exchange                       -0.00040243 [mEh]      -0.00025253 [kcal/mol]      -0.00105658 [kJ/mol]
      Exch10                       -0.00040243 [mEh]      -0.00025253 [kcal/mol]      -0.00105658 [kJ/mol]
      Exch10(S^2)                  -0.00040243 [mEh]      -0.00025253 [kcal/mol]      -0.00105658 [kJ/mol]

    Induction                      -2.03330154 [mEh]      -1.27591598 [kcal/mol]      -5.33843245 [kJ/mol]
      Ind20,r                      -2.00297109 [mEh]      -1.25688334 [kcal/mol]      -5.25879988 [kJ/mol]
      Exch-Ind20,r                  0.00053121 [mEh]       0.00033334 [kcal/mol]       0.00139469 [kJ/mol]
      delta HF,r (2)               -0.03086165 [mEh]      -0.01936598 [kcal/mol]      -0.08102726 [kJ/mol]

    Dispersion                     -1.39220288 [mEh]      -0.87362050 [kcal/mol]      -3.65522815 [kJ/mol]
      Disp20                       -1.39239659 [mEh]      -0.87374205 [kcal/mol]      -3.65573675 [kJ/mol]
      Exch-Disp20                   0.00019372 [mEh]       0.00012156 [kcal/mol]       0.00050860 [kJ/mol]
      Disp20 (SS)                  -0.69619830 [mEh]      -0.43687103 [kcal/mol]      -1.82786838 [kJ/mol]
      Disp20 (OS)                  -0.69619830 [mEh]      -0.43687103 [kcal/mol]      -1.82786838 [kJ/mol]
      Exch-Disp20 (SS)              0.00014934 [mEh]       0.00009371 [kcal/mol]       0.00039209 [kJ/mol]
      Exch-Disp20 (OS)              0.00004438 [mEh]       0.00002785 [kcal/mol]       0.00011651 [kJ/mol]

  Total HF                         -9.20111628 [mEh]      -5.77378763 [kcal/mol]     -24.15752746 [kJ/mol]
  Total SAPT0                     -10.59331916 [mEh]      -6.64740813 [kcal/mol]     -27.81275562 [kJ/mol]

  Special recipe for scaled SAPT0 (see Manual):
    Electrostatics sSAPT0          -7.16741231 [mEh]      -4.49761913 [kcal/mol]     -18.81803843 [kJ/mol]
    Exchange sSAPT0                -0.00040243 [mEh]      -0.00025253 [kcal/mol]      -0.00105658 [kJ/mol]
    Induction sSAPT0               -2.03330154 [mEh]      -1.27591598 [kcal/mol]      -5.33843245 [kJ/mol]
    Dispersion sSAPT0              -1.39220288 [mEh]      -0.87362050 [kcal/mol]      -3.65522815 [kJ/mol]
  Total sSAPT0                    -10.59331916 [mEh]      -6.64740813 [kcal/mol]     -27.81275562 [kJ/mol]
  --------------------------------------------------------------------------------------------------------

*** Psi4 exiting successfully. Buy a developer a beer!
