                               Psi4 1.9 release

  ==> Input File <==

--------------------------------------------------------------------------
memory 32 GB # how much memory is available ! Depends on the nodes/cores !

molecule dimer {
# monomer A
+1 1    # Charge and multiplicity
C  0.680067 -0.008042 -5.615929
C -0.680504 -0.006014 -5.615545
N -1.085635 -0.005016 -4.297221
C  0.000108 -0.001740 -3.515820
C -2.477365  0.044390 -3.829242
N  1.085222 -0.005016 -4.297221
H  1.385146 -0.015870 -6.433368
H -1.385302 -0.006204 -6.433214
H -0.000009  0.000007 -2.434731
C  2.478117 -0.021908 -3.832123
H  2.490592  0.005437 -2.741870
H  2.967028 -0.935354 -4.179299
H  3.001428  0.853575 -4.223595
H -2.857359  1.066461 -3.909201
H -3.082679 -0.625694 -4.442306
H -2.518128 -0.282594 -2.789294
--
# monomer B
0 1     # Charge and multiplicity
C   1.22531237526482      0.70753866091955      0.00613762728373
C   1.22532433589282     -0.70753852257020     -0.00619318228664
C   -0.00000567409046      1.41496628609039     -0.00672680580738
C   2.45644923379077      1.41832825917820      0.00902448468363
C   0.00001130712078     -1.41497612663474      0.00347275151708
C   -1.22530046906674      0.70754574598412      0.00838914760619
C   2.45643823516184     -1.41832293188077     -0.00843833914343
C   -0.00000085313587      2.83680140328112     -0.00913035594137
C   3.68182717731192      0.70931832800114     -0.00808954934571
C   2.45512052870677      2.83422403348893     -0.00819210630633
C   3.68182158506039     -0.70933346742900      0.00798293467272
C   -1.22531311884624     -0.70752714354401     -0.00512042085974
C   1.22670006104402      3.54346985599427      0.00816696660346
C   0.00000526469929     -2.83678176723568      0.00832091913869
C   -2.45643555300670      1.41831729028492      0.00842454345199
C   2.45512389762097     -2.83422965658853      0.00783102630520
C   -1.22671388474763      3.54346943575023      0.00827029982280
C   4.91451777504333      1.42717324448953     -0.00160886631602
C   3.69315067131765      3.54279566454522     -0.00155906667985
C   -2.45643712022637     -1.41831290883911     -0.00846337726810
C   1.22670532178455     -3.54347386990643     -0.00780316414624
C   -2.45512491866593      2.83421703463423     -0.00818572995999
C   4.91452486062398     -1.42718653794377      0.00136387641845
C   1.22142509354026      4.97013443726031      0.00150231067809
C   4.89300870916237      2.82518837202648     -0.00039219795739
C   -1.22669652864725     -3.54347062507680     -0.00753595973677
C   -3.68181849668397      0.70932533873199     -0.00807686886569
C   3.69314758099218     -3.54280096939050      0.00148176697923
C   -1.22143177215231      4.97012866986289      0.00168580605083
C   6.13477145276790      0.68054831910577     -0.00083909176631
C   3.65678936045204      4.97295361556775     -0.00065042889723
C   -2.45512642789169     -2.83421472106065      0.00758666850712
C   -3.68181869921921     -0.70932533146830      0.00810055625144
C   4.89301309775526     -2.82519973363176      0.00021895393805
C   -0.00000059327114      5.65044773803267      0.00045449734393
C   6.13477559217374     -0.68055448207492      0.00042622874941
C   2.47813196269732      5.65357712333155      0.00063835075260
C   1.22142288457925     -4.97012668293268     -0.00129718634452
C   -3.69316190412301      3.54279732619245     -0.00139355922051
C   -1.22142804110313     -4.97011793159564     -0.00140994817719
C   -4.91452132810043      1.42717581899491     -0.00153192130862
C   3.65678749952045     -4.97295485423912      0.00080007163680
C   -2.47813805026426      5.65357479452875      0.00092287576113
C   -3.69314125872231     -3.54278984697859      0.00136564082345
C   -4.91451200321153     -1.42718062802730      0.00139857359209
C   -0.00000552908399     -5.65043791501335      0.00005899322272
C   -4.89302000425900      2.82518897091939     -0.00040227981744
C   2.47812647313991     -5.65357317188818     -0.00029052915548
C   -3.65679823041642      4.97295655404175     -0.00047374852278
C   -4.89299899901461     -2.82519139505969      0.00006491824035
C   -2.47812801824129     -5.65356579800621     -0.00056571680280
C   -6.13477002348955      0.68054913825639     -0.00086464346868
C   -3.65678835334731     -4.97294365097028      0.00058578382008
C   -6.13476456307132     -0.68055354348201      0.00040575295444
H   5.83528897565761      3.36927626695423      0.00396712770529
H   7.07385965258860      1.22821762089947     -0.00037744837300
H   4.60066374401555      5.51238117445323     -0.00014522814529
H   5.83528386714679     -3.36930568472863     -0.00423551337640
H   -0.00001167146422      6.73853104613662     -0.00389474766392
H   7.07386165167227     -1.22822657074368     -0.00008250934481
H   2.47331421164041      6.74068466339473      0.00017162982210
H   4.60066897122302     -5.51237575717576      0.00039007446835
H   -2.47331820069565      6.74068209160650      0.00047297644710
H   -0.00000978838621     -6.73852780445195      0.00458867820736
H   -5.83530143450167      3.36927132229595      0.00410314985360
H   2.47330840367253     -6.74068500242887      0.00027980126949
H   -4.60067436136587      5.51237839860371      0.00002010017831
H   -5.83527902699321     -3.36928859177951     -0.00451481925734
H   -2.47329986759855     -6.74067870613986     -0.00016951527498
H   -7.07385728692578      1.22822084484047     -0.00046143985387
H   -4.60067330624313     -5.51236229778631      0.00021776644566
H   -7.07385645456741     -1.22822025997701     -0.00017736581114

    units angstrom      # Angstroms are the default
    no_reorient         # Geometry fixed, default
    symmetry c1         # C1 symmetry, default
}

set {
    scf_type DF         # Density fitting, faster than exact integrals
    freeze_core True    # Freeze core electrons
    basis jun-cc-pVDZ   # Jun-cc-pVDZ basis set, recommended for sSAPT0 in https://doi.org/10.1063/1.4867135
}

energy('ssapt0')        # Compute sSAPT0 energy, includes also SAPT0
--------------------------------------------------------------------------

  //              Dimer HF             //
    Molecular point group: c1
  Charge       = 1
  Multiplicity = 1
  Basis Set: JUN-CC-PVDZ
    Blend: JUN-CC-PVDZ
  Basis Set: (JUN-CC-PVDZ AUX)
    Blend: JUN-CC-PVDZ-JKFIT
  @DF-RHF Final Energy: -2359.21309290233967
    Total Energy =                      -2359.2130929023405770
 Dipole X            :         -0.0024377            0.0006313           -0.0018064
 Dipole Y            :         -0.0529140            0.0560211            0.0031071
 Dipole Z            :         15.8583424          -21.0489981           -5.1906558
 Magnitude           :                                                    5.1906570
  //            Monomer A HF           //
    Molecular point group: c1
  Multiplicity = 1
  Basis Set: JUN-CC-PVDZ
    Blend: JUN-CC-PVDZ
  Basis Set: (JUN-CC-PVDZ AUX)
    Blend: JUN-CC-PVDZ-JKFIT
  @DF-RHF Final Energy:  -303.29809526672256
    Total Energy =                       -303.2980952667225552
  //            Monomer B HF           //
    Molecular point group: c1

    Geometry (in Angstrom), charge = 0, multiplicity = 1:

       Center              X                  Y                   Z               Mass
    ------------   -----------------  -----------------  -----------------  -----------------
      Gh(C)           0.680066520158    -0.008042372515    -5.056278267174    12.000000000000
      Gh(C)          -0.680504479842    -0.006014372515    -5.055894267174    12.000000000000
      Gh(N)          -1.085635479842    -0.005016372515    -3.737570267174    14.003074004430
      Gh(C)           0.000107520158    -0.001740372515    -2.956169267174    12.000000000000
      Gh(C)          -2.477365479842     0.044389627485    -3.269591267174    12.000000000000
      Gh(N)           1.085221520158    -0.005016372515    -3.737570267174    14.003074004430
      Gh(H)           1.385145520158    -0.015870372515    -5.873717267174     1.007825032230
      Gh(H)          -1.385302479842    -0.006204372515    -5.873563267174     1.007825032230
      Gh(H)          -0.000009479842     0.000006627485    -1.875080267174     1.007825032230
      Gh(C)           2.478116520158    -0.021908372515    -3.272472267174    12.000000000000
      Gh(H)           2.490591520158     0.005436627485    -2.182219267174     1.007825032230
      Gh(H)           2.967027520158    -0.935354372515    -3.619648267174     1.007825032230
      Gh(H)           3.001427520158     0.853574627485    -3.663944267174     1.007825032230
      Gh(H)          -2.857359479842     1.066460627485    -3.349550267174     1.007825032230
      Gh(H)          -3.082679479842    -0.625694372515    -3.882655267174     1.007825032230
      Gh(H)          -2.518128479842    -0.282594372515    -2.229643267174     1.007825032230
         C            1.225311895423     0.707538288405     0.565788360110    12.000000000000
         C            1.225323856051    -0.707538895085     0.553457550540    12.000000000000
         C           -0.000006153932     1.414965913575     0.552923927019    12.000000000000
         C            2.456448753949     1.418327886663     0.568675217510    12.000000000000
         C            0.000010827279    -1.414976499150     0.563123484343    12.000000000000
         C           -1.225300948908     0.707545373469     0.568039880433    12.000000000000
         C            2.456437755320    -1.418323304396     0.551212393683    12.000000000000
         C           -0.000001332978     2.836801030766     0.550520376885    12.000000000000
         C            3.681826697470     0.709317955486     0.551561183481    12.000000000000
         C            2.455120048865     2.834223660974     0.551458626520    12.000000000000
         C            3.681821105219    -0.709333839944     0.567633667499    12.000000000000
         C           -1.225313598688    -0.707527516059     0.554530311967    12.000000000000
         C            1.226699581202     3.543469483479     0.567817699430    12.000000000000
         C            0.000004784858    -2.836782139751     0.567971651965    12.000000000000
         C           -2.456436032848     1.418316917770     0.568075276278    12.000000000000
         C            2.455123417779    -2.834230029103     0.567481759132    12.000000000000
         C           -1.226714364589     3.543469063235     0.567921032649    12.000000000000
         C            4.914517295202     1.427172871975     0.558041866510    12.000000000000
         C            3.693150191476     3.542795292030     0.558091666147    12.000000000000
         C           -2.456437600068    -1.418313281354     0.551187355558    12.000000000000
         C            1.226704841943    -3.543474242421     0.551847568680    12.000000000000
         C           -2.455125398508     2.834216662119     0.551465002866    12.000000000000
         C            4.914524380782    -1.427186910459     0.561014609245    12.000000000000
         C            1.221424613699     4.970134064745     0.561153043504    12.000000000000
         C            4.893008229321     2.825187999512     0.559258534869    12.000000000000
         C           -1.226697008489    -3.543470997592     0.552114773090    12.000000000000
         C           -3.681818976526     0.709324966217     0.551573863961    12.000000000000
         C            3.693147101150    -3.542801341905     0.561132499806    12.000000000000
         C           -1.221432251994     4.970128297348     0.561336538877    12.000000000000
         C            6.134770972926     0.680547946591     0.558811641060    12.000000000000
         C            3.656788880610     4.972953243053     0.559000303929    12.000000000000
         C           -2.455126907733    -2.834215093576     0.567237401334    12.000000000000
         C           -3.681819179061    -0.709325703983     0.567751289078    12.000000000000
         C            4.893012617914    -2.825200106147     0.559869686764    12.000000000000
         C           -0.000001073113     5.650447365518     0.560105230170    12.000000000000
         C            6.134775112332    -0.680554854590     0.560076961576    12.000000000000
         C            2.478131482856     5.653576750817     0.560289083579    12.000000000000
         C            1.221422404738    -4.970127055448     0.558353546482    12.000000000000
         C           -3.693162383965     3.542796953677     0.558257173606    12.000000000000
         C           -1.221428520945    -4.970118304111     0.558240784649    12.000000000000
         C           -4.914521807942     1.427175446480     0.558118811518    12.000000000000
         C            3.656787019679    -4.972955226754     0.560450804463    12.000000000000
         C           -2.478138530106     5.653574422014     0.560573608588    12.000000000000
         C           -3.693141738564    -3.542790219494     0.561016373650    12.000000000000
         C           -4.914512483053    -1.427181000542     0.561049306418    12.000000000000
         C           -0.000006008926    -5.650438287528     0.559709726049    12.000000000000
         C           -4.893020484101     2.825188598404     0.559248453009    12.000000000000
         C            2.478125993298    -5.653573544403     0.559360203671    12.000000000000
         C           -3.656798710258     4.972956181527     0.559176984304    12.000000000000
         C           -4.892999478856    -2.825191767575     0.559715651067    12.000000000000
         C           -2.478128498083    -5.653566170521     0.559085016024    12.000000000000
         C           -6.134770503331     0.680548765741     0.558786089358    12.000000000000
         C           -3.656788833189    -4.972944023485     0.560236516646    12.000000000000
         C           -6.134765042913    -0.680553915997     0.560056485781    12.000000000000
         H            5.835288495816     3.369275894439     0.563617860532     1.007825032230
         H            7.073859172747     1.228217248385     0.559273284453     1.007825032230
         H            4.600663264174     5.512380801938     0.559505504681     1.007825032230
         H            5.835283387305    -3.369306057244     0.555415219450     1.007825032230
         H           -0.000012151306     6.738530673622     0.555755985162     1.007825032230
         H            7.073861171831    -1.228226943259     0.559568223482     1.007825032230
         H            2.473313731799     6.740684290880     0.559822362649     1.007825032230
         H            4.600668491381    -5.512376129691     0.560040807295     1.007825032230
         H           -2.473318680537     6.740681719092     0.560123709274     1.007825032230
         H           -0.000010268228    -6.738528176967     0.564239411034     1.007825032230
         H           -5.835301914343     3.369270949781     0.563753882680     1.007825032230
         H            2.473307923831    -6.740685374944     0.559930534096     1.007825032230
         H           -4.600674841208     5.512378026089     0.559670833005     1.007825032230
         H           -5.835279506835    -3.369288964294     0.555135913569     1.007825032230
         H           -2.473300347440    -6.740679078655     0.559481217551     1.007825032230
         H           -7.073857766768     1.228220472326     0.559189292973     1.007825032230
         H           -4.600673786085    -5.512362670301     0.559868499272     1.007825032230
         H           -7.073856934409    -1.228220632492     0.559473367015     1.007825032230

  Charge       = 0
  Multiplicity = 1
  Basis Set: JUN-CC-PVDZ
    Blend: JUN-CC-PVDZ
  Basis Set: (JUN-CC-PVDZ AUX)
    Blend: JUN-CC-PVDZ-JKFIT

    Orbital Energies [Eh]
    ---------------------

    Doubly Occupied:

       1A    -11.260588     2A    -11.260172     3A    -11.260100
       4A    -11.259418     5A    -11.259360     6A    -11.259202
       7A    -11.258974     8A    -11.258919     9A    -11.258876
      10A    -11.258579    11A    -11.258563    12A    -11.258467
      13A    -11.258410    14A    -11.258405    15A    -11.258401
      16A    -11.258370    17A    -11.258360    18A    -11.258343
      19A    -11.258338    20A    -11.258329    21A    -11.258328
      22A    -11.258273    23A    -11.258245    24A    -11.258007
      25A    -11.257272    26A    -11.257232    27A    -11.257186
      28A    -11.257093    29A    -11.257049    30A    -11.256986
      31A    -11.256373    32A    -11.256327    33A    -11.256268
      34A    -11.256203    35A    -11.256159    36A    -11.256131
      37A    -11.252221    38A    -11.252220    39A    -11.252218
      40A    -11.252217    41A    -11.252198    42A    -11.252196
      43A    -11.251316    44A    -11.251315    45A    -11.251309
      46A    -11.251306    47A    -11.251303    48A    -11.251299
      49A    -11.250782    50A    -11.250781    51A    -11.250779
      52A    -11.250777    53A    -11.250759    54A    -11.250757
      55A     -1.243913    56A     -1.219690    57A     -1.219662
      58A     -1.189422    59A     -1.189404    60A     -1.180807
      61A     -1.157446    62A     -1.148858    63A     -1.135366
      64A     -1.135333    65A     -1.113081    66A     -1.113076
      67A     -1.082297    68A     -1.082285    69A     -1.078468
      70A     -1.065875    71A     -1.065866    72A     -1.039273
      73A     -1.024124    74A     -1.021631    75A     -1.021563
      76A     -1.017615    77A     -1.012694    78A     -0.986891
      79A     -0.986830    80A     -0.961770    81A     -0.961711
      82A     -0.894164    83A     -0.894144    84A     -0.887779
      85A     -0.886023    86A     -0.885982    87A     -0.881247
      88A     -0.881207    89A     -0.861778    90A     -0.837311
      91A     -0.818078    92A     -0.816463    93A     -0.811994
      94A     -0.811989    95A     -0.794575    96A     -0.794560
      97A     -0.746472    98A     -0.744715    99A     -0.733272
     100A     -0.733261   101A     -0.732059   102A     -0.732040
     103A     -0.716362   104A     -0.698862   105A     -0.698821
     106A     -0.693469   107A     -0.693416   108A     -0.661113
     109A     -0.652967   110A     -0.651004   111A     -0.650144
     112A     -0.650131   113A     -0.639249   114A     -0.639219
     115A     -0.629576   116A     -0.627379   117A     -0.627370
     118A     -0.606404   119A     -0.605723   120A     -0.601510
     121A     -0.599627   122A     -0.599551   123A     -0.593491
     124A     -0.591072   125A     -0.591032   126A     -0.585181
     127A     -0.576453   128A     -0.576311   129A     -0.567220
     130A     -0.567193   131A     -0.565813   132A     -0.565803
     133A     -0.558575   134A     -0.554734   135A     -0.554717
     136A     -0.538477   137A     -0.538474   138A     -0.538197
     139A     -0.538139   140A     -0.529587   141A     -0.528142
     142A     -0.522760   143A     -0.522717   144A     -0.500386
     145A     -0.495574   146A     -0.493113   147A     -0.487779
     148A     -0.484926   149A     -0.481618   150A     -0.481613
     151A     -0.470308   152A     -0.470246   153A     -0.450851
     154A     -0.450788   155A     -0.439004   156A     -0.439003
     157A     -0.404694   158A     -0.404637   159A     -0.403303
     160A     -0.375359   161A     -0.375355   162A     -0.349065
     163A     -0.337508   164A     -0.336465   165A     -0.336451
     166A     -0.311016   167A     -0.298050   168A     -0.284246
     169A     -0.284207   170A     -0.224827   171A     -0.224767

  @DF-RHF Final Energy: -2055.89492034403702

   => Energetics <=

    Nuclear Repulsion Energy =           6452.5568002797781446
    One-Electron Energy =              -15636.5188605804451072
    Two-Electron Energy =                7128.0671399566290347
    Total Energy =                      -2055.8949203440370184
 Dipole X            :         -0.0003103           -0.0000085           -0.0003188
 Dipole Y            :         -0.0001957            0.0000167           -0.0001790
 Dipole Z            :       -361.6891316          361.6931780            0.0040463
 Magnitude           :                                                    0.0040628

    SAPT Results
  --------------------------------------------------------------------------------------------------------
    Electrostatics                -15.05990581 [mEh]      -9.45023357 [kcal/mol]     -39.53977726 [kJ/mol]
      Elst10,r                    -15.05990581 [mEh]      -9.45023357 [kcal/mol]     -39.53977726 [kJ/mol]

    Exchange                        9.04374941 [mEh]       5.67503843 [kcal/mol]      23.74436081 [kJ/mol]
      Exch10                        9.04374941 [mEh]       5.67503843 [kcal/mol]      23.74436081 [kJ/mol]
      Exch10(S^2)                   9.01764957 [mEh]       5.65866053 [kcal/mol]      23.67583567 [kJ/mol]

    Induction                     -14.06113518 [mEh]      -8.82349554 [kcal/mol]     -36.91750533 [kJ/mol]
      Ind20,r                     -13.87159279 [mEh]      -8.70455589 [kcal/mol]     -36.41986184 [kJ/mol]
      Exch-Ind20,r                  2.01581030 [mEh]       1.26494006 [kcal/mol]       5.29250922 [kJ/mol]
      delta HF,r (2)               -2.20535270 [mEh]      -1.38387971 [kcal/mol]      -5.79015271 [kJ/mol]

    Dispersion                    -18.55795626 [mEh]     -11.64529337 [kcal/mol]     -48.72390745 [kJ/mol]
      Disp20                      -19.43813383 [mEh]     -12.19761313 [kcal/mol]     -51.03481335 [kJ/mol]
      Exch-Disp20                   0.88017757 [mEh]       0.55231977 [kcal/mol]       2.31090590 [kJ/mol]
      Disp20 (SS)                  -9.71906692 [mEh]      -6.09880657 [kcal/mol]     -25.51740667 [kJ/mol]
      Disp20 (OS)                  -9.71906692 [mEh]      -6.09880657 [kcal/mol]     -25.51740667 [kJ/mol]
      Exch-Disp20 (SS)              0.52974447 [mEh]       0.33241967 [kcal/mol]       1.39084391 [kJ/mol]
      Exch-Disp20 (OS)              0.35043310 [mEh]       0.21990009 [kcal/mol]       0.92006199 [kJ/mol]

  Total HF                        -20.07729158 [mEh]     -12.59869067 [kcal/mol]     -52.71292178 [kJ/mol]
  Total SAPT0                     -38.63524784 [mEh]     -24.24398404 [kcal/mol]    -101.43682923 [kJ/mol]

  Special recipe for scaled SAPT0 (see Manual):
    Electrostatics sSAPT0         -15.05990581 [mEh]      -9.45023357 [kcal/mol]     -39.53977726 [kJ/mol]
    Exchange sSAPT0                 9.04374941 [mEh]       5.67503843 [kcal/mol]      23.74436081 [kJ/mol]
    Induction sSAPT0              -14.04358135 [mEh]      -8.81248034 [kcal/mol]     -36.87141775 [kJ/mol]
    Dispersion sSAPT0             -18.55029161 [mEh]     -11.64048372 [kcal/mol]     -48.70378390 [kJ/mol]
  Total sSAPT0                    -38.61002936 [mEh]     -24.22815920 [kcal/mol]    -101.37061811 [kJ/mol]
  --------------------------------------------------------------------------------------------------------

*** Psi4 exiting successfully. Buy a developer a beer!
