                               Psi4 1.9 release

  ==> Input File <==

--------------------------------------------------------------------------
memory 47 GB # how much memory is available ! Depends on the nodes/cores !

molecule dimer {
# monomer A
-1 1    # Charge and multiplicity
B -0.000046  0.000337 3.199994
F -1.153597  0.000048 4.015641
F  1.153661 -0.000581 4.015641
F -0.000019 -1.153637 2.384360
F -0.000019  1.153978 2.384360
--
# monomer B
0 1     # Charge and multiplicity
C   -3.66844126402057      7.80375217008252      0.00190004133558
C   -4.84759871934653      7.13124183134024     -0.00046653359696
C   -4.89495929917518      5.69633040353158     -0.00103944469517
C   -3.65374067877320      4.98073034095895      0.00662099703436
C   -2.40942512149445      7.11398103667468      0.00209438359570
C   -2.42547734410473      5.68112195090346     -0.00491050527438
C   -1.19474401643570      7.78614419430947      0.00356656413763
C   0.03795902893699      7.09942164575698      0.00139585983271
C   0.03033258741920      5.66948955970466     -0.00408752508301
C   -1.20098450790502      4.96927034791531      0.00488220885047
C   1.27795782581485      7.77285944319479      0.00277170839332
C   2.48535808472416      7.08769688523756      0.00049722048857
C   2.48612868491717      5.65477081024076     -0.00644052849921
C   1.25408291964399      4.95607811366431      0.00518741308898
C   3.75171459140595      7.76391215098033      0.00062407186893
C   4.92356605618520      7.07878077698995     -0.00143240883900
C   4.95560727132542      5.64344746336949     -0.00159282164606
C   3.70680153420475      4.94121020833308      0.00349873852374
H   -3.65852113775815      8.89082741913536      0.00358502958574
H   -1.18921332975660      8.87412108735996      0.00753844057883
H   1.28429423888630      8.86083343548850      0.00693053253426
H   3.75354208679975      8.85103527897216      0.00214659618464
H   5.86995870320703      7.61379483465560     -0.00235777588134
H   -5.78823170750226      7.67630221293400     -0.00202638095293
C   -6.09197395869619      4.99326001364347     -0.00291168518608
C   -6.12866148031747      3.58258016879823     -0.00171050815740
C   -3.66457974004527      3.56418217974434     -0.00463560277484
C   -4.89429820469869      2.86108077590057      0.00453338221034
C   -2.43733499489796      2.84761165708481      0.00719617576166
C   -1.20922785759670      3.54788693497833     -0.00648285103018
C   1.24714157216223      3.53468075142962     -0.00729145743546
C   0.01517603956900      2.83311183930540      0.00439272578912
C   2.46764517244071      2.82128997725533      0.00449278391269
C   3.70254947457969      3.52466015442405     -0.00899517692985
C   6.14498038638375      4.92757236613191     -0.00282626685777
C   6.16658835886151      3.51658447594213     -0.00065971342101
C   4.92460995845939      2.80840792535402      0.00587903281610
H   7.08990550964105      5.46688776622306     -0.00658814770723
H   -7.03104175110130      5.54268795285765     -0.00714490013730
C   -7.33969804112295      2.85841153457957     -0.00333767559888
C   -7.36488195805880      1.47032337158330     -0.00157213747140
C   -4.90350460894690      1.44442681216000     -0.00628840166334
C   -6.13225715261081      0.73993935705394      0.00600164231964
C   -3.67687480051673      0.72669714267312      0.00433931473643
C   -2.44565658606518      1.42964113326212     -0.00597039546461
C   -1.22360068130162      0.71532450163492      0.00545886906656
C   0.00763786931376      1.41738314923765      0.00392452278437
C   1.23121980774686      0.70211669058719     -0.01490206287210
C   2.46082110053113      1.40329203612573      0.00460244601878
C   3.68443025419614      0.68719842821222      0.00377365974158
C   4.91870890153864      1.39173456118907     -0.00862816189375
C   7.36980207796101      2.77948220318441     -0.00242013321349
C   7.38016266612146      1.39121750785509     -0.00087345036788
C   6.13979953912259      0.67411862320065      0.00545489144369
H   -8.27919079934664      3.40711804112415     -0.00763522772059
H   8.31511347147953      3.31811809662368     -0.00663070901292
C   -8.59175593758115      0.72483255304480     -0.00123170985383
C   -8.59902460370342     -0.63263980622873      0.00089141472904
C   -6.13981313911873     -0.67413663715361     -0.00609792660607
C   -7.38018411213749     -1.39126618958160      0.00131813493501
C   -4.91868448025621     -1.39175501803000      0.00624257154343
C   -3.68443829568458     -0.68723731573599     -0.00478966852105
C   -2.46081704024768     -1.40334517882457      0.00575341766833
C   -1.23116201232071     -0.70217386488055     -0.00636696112346
C   -0.00756962538737     -1.41741884941102      0.00108956317991
C   1.22364771588843     -0.71527537726392      0.01109518512883
C   2.44567064933149     -1.42964328900682     -0.00065482763106
C   3.67686670284649     -0.72670743155550     -0.00479541202602
C   6.13224884641929     -0.73997883984993     -0.00632338623858
C   4.90351914550401     -1.44445752054090      0.00751768830159
C   8.59901484869081      0.63260386666793     -0.00101133422380
C   8.59174548810050     -0.72485086719319      0.00072504603735
C   7.36486276438985     -1.47033266560598      0.00049486934466
H   -9.52830597181814      1.27684744919284     -0.00270163681798
H   9.54141097460619      1.17457248844457     -0.00206336648518
C   -7.36983790976868     -2.77954514593389      0.00312634335708
C   -4.92459910905015     -2.80843725734101     -0.00460528907921
C   -6.16662249566744     -3.51665219282533      0.00169655107992
C   -3.70251035970491     -3.52468154912026      0.00571878010666
C   -2.46764698511392     -2.82132596280400     -0.00632585824990
C   -0.01513347410770     -2.83314164539971     -0.00604426974092
C   -1.24712184122656     -3.53473217556300      0.00551968366725
C   1.20924506964357     -3.54791467864352      0.00805871345849
C   2.43733602215464     -2.84764173817541     -0.00608104485234
C   4.89430234377080     -2.86112296828604     -0.00526030478103
C   3.66461525504104     -3.56421984553201      0.00761911515957
C   6.12863901474565     -3.58258405771778      0.00096495711699
C   7.33967266469532     -2.85841330737039      0.00248018319869
H   -9.54144911125902     -1.17456346666430      0.00226083090216
H   9.52826186807155     -1.27691907390448      0.00197485379837
H   -8.31516504384864     -3.31814985321231      0.00729857188773
H   8.27915514249207     -3.40714078989363      0.00681973918158
C   -6.14499418870218     -4.92764727278338      0.00302254913999
C   -3.70678334799751     -4.94126171411716     -0.00679841894792
C   -4.95559005800169     -5.64349397349412      0.00116871569699
C   -2.48612132622665     -5.65478557440947      0.00614125209662
C   -1.25405833548005     -4.95612205000132     -0.00503435388927
C   1.20101257386816     -4.96928038819302     -0.00385322963129
C   -0.03033667441341     -5.66952030313900      0.00398997003238
C   3.65375010132847     -4.98074377541453     -0.00309522988330
C   2.42549269587528     -5.68117463552727      0.00628170066869
C   6.09196561781097     -4.99325796338655      0.00325918379042
C   4.89497644461045     -5.69634842095790      0.00202298796027
H   -7.08989238804069     -5.46699984223871      0.00742531082125
H   7.03105520920009     -5.54265853633254      0.00683896355417
C   -4.92354532219813     -7.07882109967734      0.00061394679214
C   -2.48534208823777     -7.08772807792913     -0.00189594564379
C   -3.75168589177895     -7.76394715763627     -0.00170126671874
C   -0.03794895698805     -7.09946487446944     -0.00168022049625
C   -1.27795610040136     -7.77290438466689     -0.00366491325785
C   2.40944432072629     -7.11402201200282     -0.00081701968533
C   1.19474993715296     -7.78618536556242     -0.00296931056689
C   4.84762105249800     -7.13126211057943      0.00168979497423
C   3.66847160587561     -7.80378799294376     -0.00065863938960
H   -5.86994035041618     -7.61383059804164      0.00215798365757
H   5.78824962538815     -7.67633218931421      0.00281691445618
H   -3.75352693944918     -8.85107156923607     -0.00353718114765
H   -1.28430440589466     -8.86087539249706     -0.00809229711623
H   1.18922157469537     -8.87416062058945     -0.00706194725726
H   3.65854661482387     -8.89086063405326     -0.00231318081200

    units angstrom      # Angstroms are the default
    no_reorient         # Geometry fixed, default
    symmetry c1         # C1 symmetry, default
}

set {
    scf_type DF         # Density fitting, faster than exact integrals
    freeze_core True    # Freeze core electrons
    basis jun-cc-pVDZ   # Jun-cc-pVDZ basis set, recommended for sSAPT0 in https://doi.org/10.1063/1.4867135
}

energy('ssapt0')        # Compute sSAPT0 energy, includes also SAPT0
--------------------------------------------------------------------------

  //              Dimer HF             //
    Molecular point group: c1
  Charge       = -1
  Multiplicity = 1
  Basis Set: JUN-CC-PVDZ
    Blend: JUN-CC-PVDZ
  Basis Set: (JUN-CC-PVDZ AUX)
    Blend: JUN-CC-PVDZ-JKFIT
  @DF-RHF Final Energy: -4073.09192862078589
    Total Energy =                      -4073.0919286207863479
 Dipole X            :          0.0016864           -0.0001188            0.0015676
 Dipole Y            :          0.0014340           -0.0002727            0.0011613
 Dipole Z            :         15.1296588          -19.0440410           -3.9143822
 Magnitude           :                                                    3.9143826
  //            Monomer A HF           //
    Molecular point group: c1
  Multiplicity = 1
  Basis Set: JUN-CC-PVDZ
    Blend: JUN-CC-PVDZ
  Basis Set: (JUN-CC-PVDZ AUX)
    Blend: JUN-CC-PVDZ-JKFIT
  @DF-RHF Final Energy:  -422.77480092478083
    Total Energy =                       -422.7748009247808341
  //            Monomer B HF           //
    Molecular point group: c1

    Geometry (in Angstrom), charge = 0, multiplicity = 1:

       Center              X                  Y                   Z               Mass
    ------------   -----------------  -----------------  -----------------  -----------------
      Gh(B)          -0.000050191042     0.000351518223     2.979589233364    11.009305360000
      Gh(F)          -1.153601191042     0.000062518223     3.795236233364    18.998403162730
      Gh(F)           1.153656808958    -0.000566481777     3.795236233364    18.998403162730
      Gh(F)          -0.000023191042    -1.153622481777     2.163955233364    18.998403162730
      Gh(F)          -0.000023191042     1.153992518223     2.163955233364    18.998403162730
         C           -3.668445455062     7.803766688305    -0.218504725300    12.000000000000
         C           -4.847602910388     7.131256349563    -0.220871300232    12.000000000000
         C           -4.894963490217     5.696344921754    -0.221444211331    12.000000000000
         C           -3.653744869815     4.980744859182    -0.213783769601    12.000000000000
         C           -2.409429312536     7.113995554897    -0.218310383040    12.000000000000
         C           -2.425481535146     5.681136469126    -0.225315271910    12.000000000000
         C           -1.194748207477     7.786158712532    -0.216838202498    12.000000000000
         C            0.037954837895     7.099436163980    -0.219008906803    12.000000000000
         C            0.030328396378     5.669504077927    -0.224492291719    12.000000000000
         C           -1.200988698947     4.969284866138    -0.215522557785    12.000000000000
         C            1.277953634773     7.772873961417    -0.217633058242    12.000000000000
         C            2.485353893683     7.087711403460    -0.219907546147    12.000000000000
         C            2.486124493876     5.654785328463    -0.226845295135    12.000000000000
         C            1.254078728602     4.956092631887    -0.215217353547    12.000000000000
         C            3.751710400364     7.763926669203    -0.219780694767    12.000000000000
         C            4.923561865144     7.078795295213    -0.221837175475    12.000000000000
         C            4.955603080284     5.643461981592    -0.221997588282    12.000000000000
         C            3.706797343163     4.941224726556    -0.216906028112    12.000000000000
         H           -3.658525328800     8.890841937358    -0.216819737050     1.007825032230
         H           -1.189217520798     8.874135605583    -0.212866326057     1.007825032230
         H            1.284290047845     8.860847953711    -0.213474234101     1.007825032230
         H            3.753537895758     8.851049797195    -0.218258170451     1.007825032230
         H            5.869954512165     7.613809352878    -0.222762542517     1.007825032230
         H           -5.788235898544     7.676316731157    -0.222431147588     1.007825032230
         C           -6.091978149738     4.993274531866    -0.223316451822    12.000000000000
         C           -6.128665671359     3.582594687021    -0.222115274793    12.000000000000
         C           -3.664583931087     3.564196697967    -0.225040369410    12.000000000000
         C           -4.894302395740     2.861095294123    -0.215871384425    12.000000000000
         C           -2.437339185940     2.847626175307    -0.213208590874    12.000000000000
         C           -1.209232048638     3.547901453201    -0.226887617666    12.000000000000
         C            1.247137381121     3.534695269652    -0.227696224071    12.000000000000
         C            0.015171848527     2.833126357528    -0.216012040846    12.000000000000
         C            2.467640981399     2.821304495478    -0.215911982723    12.000000000000
         C            3.702545283538     3.524674672647    -0.229399943565    12.000000000000
         C            6.144976195342     4.927586884354    -0.223231033493    12.000000000000
         C            6.166584167820     3.516598994165    -0.221064480057    12.000000000000
         C            4.924605767418     2.808422443577    -0.214525733819    12.000000000000
         H            7.089901318599     5.466902284446    -0.226992914343     1.007825032230
         H           -7.031045942143     5.542702471080    -0.227549666773     1.007825032230
         C           -7.339702232165     2.858426052802    -0.223742442234    12.000000000000
         C           -7.364886149100     1.470337889806    -0.221976904107    12.000000000000
         C           -4.903508799989     1.444441330383    -0.226693168299    12.000000000000
         C           -6.132261343652     0.739953875277    -0.214403124316    12.000000000000
         C           -3.676878991558     0.726711660896    -0.216065451899    12.000000000000
         C           -2.445660777107     1.429655651485    -0.226375162100    12.000000000000
         C           -1.223604872343     0.715339019858    -0.214945897569    12.000000000000
         C            0.007633678272     1.417397667460    -0.216480243851    12.000000000000
         C            1.231215616705     0.702131208810    -0.235306829508    12.000000000000
         C            2.460816909489     1.403306554348    -0.215802320617    12.000000000000
         C            3.684426063155     0.687212946435    -0.216631106894    12.000000000000
         C            4.918704710497     1.391749079412    -0.229032928529    12.000000000000
         C            7.369797886919     2.779496721407    -0.222824899849    12.000000000000
         C            7.380158475080     1.391232026078    -0.221278217003    12.000000000000
         C            6.139795348081     0.674133141423    -0.214949875192    12.000000000000
         H           -8.279194990388     3.407132559347    -0.228039994356     1.007825032230
         H            8.315109280438     3.318132614846    -0.227035475648     1.007825032230
         C           -8.591760128623     0.724847071267    -0.221636476489    12.000000000000
         C           -8.599028794745    -0.632625288006    -0.219513351906    12.000000000000
         C           -6.139817330160    -0.674122118931    -0.226502693242    12.000000000000
         C           -7.380188303179    -1.391251671359    -0.219086631700    12.000000000000
         C           -4.918688671298    -1.391740499807    -0.214162195092    12.000000000000
         C           -3.684442486726    -0.687222797513    -0.225194435157    12.000000000000
         C           -2.460821231289    -1.403330660602    -0.214651348967    12.000000000000
         C           -1.231166203362    -0.702159346658    -0.226771727759    12.000000000000
         C           -0.007573816429    -1.417404331188    -0.219315203456    12.000000000000
         C            1.223643524847    -0.715260859041    -0.209309581507    12.000000000000
         C            2.445666458290    -1.429628770784    -0.221059594267    12.000000000000
         C            3.676862511805    -0.726692913333    -0.225200178662    12.000000000000
         C            6.132244655378    -0.739964321627    -0.226728152874    12.000000000000
         C            4.903514954462    -1.444443002318    -0.212887078334    12.000000000000
         C            8.599010657649     0.632618384891    -0.221416100859    12.000000000000
         C            8.591741297059    -0.724836348971    -0.219679720598    12.000000000000
         C            7.364858573348    -1.470318147383    -0.219909897291    12.000000000000
         H           -9.528310162860     1.276861967415    -0.223106403453     1.007825032230
         H            9.541406783565     1.174587006667    -0.222468133121     1.007825032230
         C           -7.369842100810    -2.779530627711    -0.217278423278    12.000000000000
         C           -4.924603300092    -2.808422739118    -0.225010055715    12.000000000000
         C           -6.166626686709    -3.516637674603    -0.218708215556    12.000000000000
         C           -3.702514550747    -3.524667030898    -0.214685986529    12.000000000000
         C           -2.467651176156    -2.821311444581    -0.226730624885    12.000000000000
         C           -0.015137665149    -2.833127127177    -0.226449036376    12.000000000000
         C           -1.247126032268    -3.534717657340    -0.214885082968    12.000000000000
         C            1.209240878602    -3.547900160421    -0.212346053177    12.000000000000
         C            2.437331831113    -2.847627219953    -0.226485811488    12.000000000000
         C            4.894298152729    -2.861108450063    -0.225665071417    12.000000000000
         C            3.664611063999    -3.564205327309    -0.212785651476    12.000000000000
         C            6.128634823704    -3.582569539495    -0.219439809519    12.000000000000
         C            7.339668473654    -2.858398789148    -0.217924583437    12.000000000000
         H           -9.541453302301    -1.174548948442    -0.218143935733     1.007825032230
         H            9.528257677030    -1.276904555682    -0.218429912837     1.007825032230
         H           -8.315169234890    -3.318135334990    -0.213106194748     1.007825032230
         H            8.279150951450    -3.407126271671    -0.213585027454     1.007825032230
         C           -6.144998379744    -4.927632754561    -0.217382217496    12.000000000000
         C           -3.706787539039    -4.941247195895    -0.227203185583    12.000000000000
         C           -4.955594249043    -5.643479455272    -0.219236050939    12.000000000000
         C           -2.486125517268    -5.654771056187    -0.214263514539    12.000000000000
         C           -1.254062526522    -4.956107531779    -0.225439120525    12.000000000000
         C            1.201008382827    -4.969265869970    -0.224257996267    12.000000000000
         C           -0.030340865455    -5.669505784916    -0.216414796603    12.000000000000
         C            3.653745910287    -4.980729257192    -0.223499996519    12.000000000000
         C            2.425488504834    -5.681160117305    -0.214123065967    12.000000000000
         C            6.091961426769    -4.993243445164    -0.217145582845    12.000000000000
         C            4.894972253569    -5.696333902735    -0.218381778675    12.000000000000
         H           -7.089896579082    -5.466985324016    -0.212979455814     1.007825032230
         H            7.031051018158    -5.542644018110    -0.213565803081     1.007825032230
         C           -4.923549513240    -7.078806581455    -0.219790819843    12.000000000000
         C           -2.485346279279    -7.087713559707    -0.222300712279    12.000000000000
         C           -3.751690082821    -7.763932639414    -0.222106033354    12.000000000000
         C           -0.037953148030    -7.099450356247    -0.222084987132    12.000000000000
         C           -1.277960291443    -7.772889866444    -0.224069679893    12.000000000000
         C            2.409440129685    -7.114007493780    -0.221221786321    12.000000000000
         C            1.194745746111    -7.786170847340    -0.223374077202    12.000000000000
         C            4.847616861456    -7.131247592357    -0.218714971661    12.000000000000
         C            3.668467414834    -7.803773474721    -0.221063406025    12.000000000000
         H           -5.869944541458    -7.613816079819    -0.218246782978     1.007825032230
         H            5.788245434347    -7.676317671092    -0.217587852179     1.007825032230
         H           -3.753531130491    -8.851057051013    -0.223941947783     1.007825032230
         H           -1.284308596936    -8.860860874274    -0.228497063752     1.007825032230
         H            1.189217383654    -8.874146102367    -0.227466713893     1.007825032230
         H            3.658542423782    -8.890846115831    -0.222717947448     1.007825032230

  Charge       = 0
  Multiplicity = 1
  Basis Set: JUN-CC-PVDZ
    Blend: JUN-CC-PVDZ
  Basis Set: (JUN-CC-PVDZ AUX)
    Blend: JUN-CC-PVDZ-JKFIT

    Orbital Energies [Eh]
    ---------------------

    Doubly Occupied:

       1A    -11.264102     2A    -11.263780     3A    -11.263686
       4A    -11.263320     5A    -11.263285     6A    -11.263265
       7A    -11.263144     8A    -11.263112     9A    -11.263091
      10A    -11.262876    11A    -11.262760    12A    -11.262745
      13A    -11.262264    14A    -11.262260    15A    -11.262249
      16A    -11.262214    17A    -11.262117    18A    -11.262115
      19A    -11.262068    20A    -11.262034    21A    -11.262018
      22A    -11.261937    23A    -11.261900    24A    -11.261763
      25A    -11.261760    26A    -11.261741    27A    -11.261722
      28A    -11.261696    29A    -11.261676    30A    -11.261585
      31A    -11.261565    32A    -11.261562    33A    -11.261560
      34A    -11.261534    35A    -11.261528    36A    -11.261509
      37A    -11.261343    38A    -11.261336    39A    -11.261329
      40A    -11.261325    41A    -11.261317    42A    -11.261314
      43A    -11.261295    44A    -11.261277    45A    -11.261274
      46A    -11.261251    47A    -11.261246    48A    -11.261241
      49A    -11.261056    50A    -11.261025    51A    -11.261018
      52A    -11.260951    53A    -11.260933    54A    -11.260883
      55A    -11.259925    56A    -11.259912    57A    -11.259908
      58A    -11.259880    59A    -11.259877    60A    -11.259861
      61A    -11.259294    62A    -11.259269    63A    -11.259265
      64A    -11.259213    65A    -11.259210    66A    -11.259181
      67A    -11.258927    68A    -11.258909    69A    -11.258907
      70A    -11.258878    71A    -11.258876    72A    -11.258864
      73A    -11.254542    74A    -11.254540    75A    -11.254533
      76A    -11.254533    77A    -11.254530    78A    -11.254530
      79A    -11.253668    80A    -11.253665    81A    -11.253662
      82A    -11.253659    83A    -11.253656    84A    -11.253655
      85A    -11.253584    86A    -11.253581    87A    -11.253577
      88A    -11.253575    89A    -11.253572    90A    -11.253571
      91A    -11.253069    92A    -11.253068    93A    -11.253061
      94A    -11.253060    95A    -11.253058    96A    -11.253058
      97A     -1.253921    98A     -1.238996    99A     -1.238994
     100A     -1.220469   101A     -1.220466   102A     -1.215416
     103A     -1.201052   104A     -1.195614   105A     -1.188125
     106A     -1.188124   107A     -1.173776   108A     -1.173772
     109A     -1.155625   110A     -1.155622   111A     -1.152697
     112A     -1.144735   113A     -1.144730   114A     -1.128572
     115A     -1.114711   116A     -1.113173   117A     -1.112463
     118A     -1.112452   119A     -1.111632   120A     -1.088431
     121A     -1.088411   122A     -1.076972   123A     -1.076970
     124A     -1.067613   125A     -1.067583   126A     -1.064960
     127A     -1.046806   128A     -1.046799   129A     -1.040485
     130A     -1.038745   131A     -1.038745   132A     -1.025230
     133A     -1.021364   134A     -1.021315   135A     -1.007187
     136A     -1.006818   137A     -1.003799   138A     -1.000484
     139A     -1.000432   140A     -0.991086   141A     -0.970987
     142A     -0.970939   143A     -0.955890   144A     -0.955832
     145A     -0.905577   146A     -0.905562   147A     -0.905538
     148A     -0.905522   149A     -0.904315   150A     -0.892358
     151A     -0.892303   152A     -0.890355   153A     -0.890295
     154A     -0.889457   155A     -0.872225   156A     -0.869069
     157A     -0.851546   158A     -0.847862   159A     -0.847843
     160A     -0.845588   161A     -0.843020   162A     -0.834567
     163A     -0.834554   164A     -0.828124   165A     -0.828121
     166A     -0.784551   167A     -0.784541   168A     -0.783651
     169A     -0.783629   170A     -0.782287   171A     -0.782269
     172A     -0.782029   173A     -0.766998   174A     -0.760786
     175A     -0.750560   176A     -0.733492   177A     -0.727076
     178A     -0.727062   179A     -0.725084   180A     -0.724547
     181A     -0.724528   182A     -0.718471   183A     -0.713764
     184A     -0.713757   185A     -0.699577   186A     -0.699567
     187A     -0.686107   188A     -0.685965   189A     -0.685962
     190A     -0.682182   191A     -0.682170   192A     -0.678760
     193A     -0.653622   194A     -0.650869   195A     -0.650841
     196A     -0.649799   197A     -0.649787   198A     -0.649573
     199A     -0.640913   200A     -0.640889   201A     -0.640096
     202A     -0.639172   203A     -0.636012   204A     -0.635985
     205A     -0.629145   206A     -0.617709   207A     -0.615311
     208A     -0.615292   209A     -0.608805   210A     -0.608799
     211A     -0.599126   212A     -0.599073   213A     -0.598740
     214A     -0.598606   215A     -0.598583   216A     -0.598014
     217A     -0.595074   218A     -0.595061   219A     -0.594721
     220A     -0.594217   221A     -0.591949   222A     -0.591947
     223A     -0.587376   224A     -0.577805   225A     -0.577794
     226A     -0.575656   227A     -0.575652   228A     -0.573387
     229A     -0.569578   230A     -0.568122   231A     -0.568103
     232A     -0.566751   233A     -0.566739   234A     -0.560921
     235A     -0.558711   236A     -0.558690   237A     -0.558434
     238A     -0.554367   239A     -0.550550   240A     -0.547483
     241A     -0.544258   242A     -0.535034   243A     -0.534959
     244A     -0.533532   245A     -0.533511   246A     -0.528080
     247A     -0.528065   248A     -0.527777   249A     -0.517144
     250A     -0.517111   251A     -0.515350   252A     -0.515344
     253A     -0.509647   254A     -0.509630   255A     -0.498030
     256A     -0.496449   257A     -0.496419   258A     -0.493773
     259A     -0.493752   260A     -0.489431   261A     -0.481455
     262A     -0.477419   263A     -0.477412   264A     -0.473997
     265A     -0.469438   266A     -0.466522   267A     -0.466517
     268A     -0.458784   269A     -0.446666   270A     -0.446605
     271A     -0.441016   272A     -0.440761   273A     -0.440741
     274A     -0.434687   275A     -0.433908   276A     -0.407366
     277A     -0.407337   278A     -0.386388   279A     -0.386321
     280A     -0.385737   281A     -0.385729   282A     -0.383725
     283A     -0.354309   284A     -0.354306   285A     -0.350648
     286A     -0.338043   287A     -0.335562   288A     -0.335486
     289A     -0.332711   290A     -0.332709   291A     -0.307034
     292A     -0.301899   293A     -0.301838   294A     -0.300845
     295A     -0.286158   296A     -0.256489   297A     -0.253458
     298A     -0.253411   299A     -0.204250   300A     -0.204155

  @DF-RHF Final Energy: -3650.34002264582978

   => Energetics <=

    Nuclear Repulsion Energy =          15611.4211649754324753
    One-Electron Energy =              -36072.1475836843310390
    Two-Electron Energy =               16810.3863960630696965
    Total Energy =                      -3650.3400226458288671
 Dipole X            :          0.0002647            0.0001983            0.0004630
 Dipole Y            :          0.0014234           -0.0013163            0.0001071
 Dipole Z            :        249.8989011         -249.8993955           -0.0004944
 Magnitude           :                                                    0.0006858

    SAPT Results
  --------------------------------------------------------------------------------------------------------
    Electrostatics                -17.26965289 [mEh]     -10.83687080 [kcal/mol]     -45.34146742 [kJ/mol]
      Elst10,r                    -17.26965289 [mEh]     -10.83687080 [kcal/mol]     -45.34146742 [kJ/mol]

    Exchange                       69.73598521 [mEh]      43.75999138 [kcal/mol]     183.09180395 [kJ/mol]
      Exch10                       69.73598521 [mEh]      43.75999138 [kcal/mol]     183.09180395 [kJ/mol]
      Exch10(S^2)                  68.95853441 [mEh]      43.27213364 [kcal/mol]     181.05060715 [kJ/mol]

    Induction                     -29.57138250 [mEh]     -18.55632267 [kcal/mol]     -77.63965405 [kJ/mol]
      Ind20,r                     -53.27357597 [mEh]     -33.42967362 [kcal/mol]    -139.86975443 [kJ/mol]
      Exch-Ind20,r                 29.25400310 [mEh]      18.35716409 [kcal/mol]      76.80637457 [kJ/mol]
      delta HF,r (2)               -5.55180963 [mEh]      -3.48381314 [kcal/mol]     -14.57627418 [kJ/mol]

    Dispersion                    -21.55244601 [mEh]     -13.52436405 [kcal/mol]     -56.58593919 [kJ/mol]
      Disp20                      -28.19382011 [mEh]     -17.69188922 [kcal/mol]     -74.02286451 [kJ/mol]
      Exch-Disp20                   6.64137411 [mEh]       4.16752517 [kcal/mol]      17.43692532 [kJ/mol]
      Disp20 (SS)                 -14.09691006 [mEh]      -8.84594461 [kcal/mol]     -37.01143225 [kJ/mol]
      Disp20 (OS)                 -14.09691006 [mEh]      -8.84594461 [kcal/mol]     -37.01143225 [kJ/mol]
      Exch-Disp20 (SS)              3.61221694 [mEh]       2.26670035 [kcal/mol]       9.48387426 [kJ/mol]
      Exch-Disp20 (OS)              3.02915717 [mEh]       1.90082482 [kcal/mol]       7.95305105 [kJ/mol]

  Total HF                         22.89494982 [mEh]      14.36679792 [kcal/mol]      60.11068248 [kJ/mol]
  Total SAPT0                       1.34250382 [mEh]       0.84243386 [kcal/mol]       3.52474329 [kJ/mol]

  Special recipe for scaled SAPT0 (see Manual):
    Electrostatics sSAPT0         -17.26965289 [mEh]     -10.83687080 [kcal/mol]     -45.34146742 [kJ/mol]
    Exchange sSAPT0                69.73598521 [mEh]      43.75999138 [kcal/mol]     183.09180395 [kJ/mol]
    Induction sSAPT0              -28.57074087 [mEh]     -17.92841057 [kcal/mol]     -75.01246983 [kJ/mol]
    Dispersion sSAPT0             -21.32527589 [mEh]     -13.38181265 [kcal/mol]     -55.98950413 [kJ/mol]
  Total sSAPT0                      2.57031556 [mEh]       1.61289736 [kcal/mol]       6.74836257 [kJ/mol]
  --------------------------------------------------------------------------------------------------------

*** Psi4 exiting successfully. Buy a developer a beer!
