                               Psi4 1.9 release

  ==> Input File <==

--------------------------------------------------------------------------
memory 80 GB # how much memory is available ! Depends on the nodes/cores !

molecule dimer {
# monomer A
-1 1    # Charge and multiplicity
B -1.977592e-04  2.742729e-04 3.100034
F  1.123153e-16  1.430594e-17 4.512819
F  1.147860e+00  6.757812e-01 2.628893
F  1.191806e-02 -1.332011e+00 2.629095
F -1.159666e+00  6.560735e-01 2.629174
--
# monomer B
0 1     # Charge and multiplicity
C   -3.66844126402057      7.80375217008252      0.00190004133558
C   -4.84759871934653      7.13124183134024     -0.00046653359696
C   -4.89495929917518      5.69633040353158     -0.00103944469517
C   -3.65374067877320      4.98073034095895      0.00662099703436
C   -2.40942512149445      7.11398103667468      0.00209438359570
C   -2.42547734410473      5.68112195090346     -0.00491050527438
C   -1.19474401643570      7.78614419430947      0.00356656413763
C   0.03795902893699      7.09942164575698      0.00139585983271
C   0.03033258741920      5.66948955970466     -0.00408752508301
C   -1.20098450790502      4.96927034791531      0.00488220885047
C   1.27795782581485      7.77285944319479      0.00277170839332
C   2.48535808472416      7.08769688523756      0.00049722048857
C   2.48612868491717      5.65477081024076     -0.00644052849921
C   1.25408291964399      4.95607811366431      0.00518741308898
C   3.75171459140595      7.76391215098033      0.00062407186893
C   4.92356605618520      7.07878077698995     -0.00143240883900
C   4.95560727132542      5.64344746336949     -0.00159282164606
C   3.70680153420475      4.94121020833308      0.00349873852374
H   -3.65852113775815      8.89082741913536      0.00358502958574
H   -1.18921332975660      8.87412108735996      0.00753844057883
H   1.28429423888630      8.86083343548850      0.00693053253426
H   3.75354208679975      8.85103527897216      0.00214659618464
H   5.86995870320703      7.61379483465560     -0.00235777588134
H   -5.78823170750226      7.67630221293400     -0.00202638095293
C   -6.09197395869619      4.99326001364347     -0.00291168518608
C   -6.12866148031747      3.58258016879823     -0.00171050815740
C   -3.66457974004527      3.56418217974434     -0.00463560277484
C   -4.89429820469869      2.86108077590057      0.00453338221034
C   -2.43733499489796      2.84761165708481      0.00719617576166
C   -1.20922785759670      3.54788693497833     -0.00648285103018
C   1.24714157216223      3.53468075142962     -0.00729145743546
C   0.01517603956900      2.83311183930540      0.00439272578912
C   2.46764517244071      2.82128997725533      0.00449278391269
C   3.70254947457969      3.52466015442405     -0.00899517692985
C   6.14498038638375      4.92757236613191     -0.00282626685777
C   6.16658835886151      3.51658447594213     -0.00065971342101
C   4.92460995845939      2.80840792535402      0.00587903281610
H   7.08990550964105      5.46688776622306     -0.00658814770723
H   -7.03104175110130      5.54268795285765     -0.00714490013730
C   -7.33969804112295      2.85841153457957     -0.00333767559888
C   -7.36488195805880      1.47032337158330     -0.00157213747140
C   -4.90350460894690      1.44442681216000     -0.00628840166334
C   -6.13225715261081      0.73993935705394      0.00600164231964
C   -3.67687480051673      0.72669714267312      0.00433931473643
C   -2.44565658606518      1.42964113326212     -0.00597039546461
C   -1.22360068130162      0.71532450163492      0.00545886906656
C   0.00763786931376      1.41738314923765      0.00392452278437
C   1.23121980774686      0.70211669058719     -0.01490206287210
C   2.46082110053113      1.40329203612573      0.00460244601878
C   3.68443025419614      0.68719842821222      0.00377365974158
C   4.91870890153864      1.39173456118907     -0.00862816189375
C   7.36980207796101      2.77948220318441     -0.00242013321349
C   7.38016266612146      1.39121750785509     -0.00087345036788
C   6.13979953912259      0.67411862320065      0.00545489144369
H   -8.27919079934664      3.40711804112415     -0.00763522772059
H   8.31511347147953      3.31811809662368     -0.00663070901292
C   -8.59175593758115      0.72483255304480     -0.00123170985383
C   -8.59902460370342     -0.63263980622873      0.00089141472904
C   -6.13981313911873     -0.67413663715361     -0.00609792660607
C   -7.38018411213749     -1.39126618958160      0.00131813493501
C   -4.91868448025621     -1.39175501803000      0.00624257154343
C   -3.68443829568458     -0.68723731573599     -0.00478966852105
C   -2.46081704024768     -1.40334517882457      0.00575341766833
C   -1.23116201232071     -0.70217386488055     -0.00636696112346
C   -0.00756962538737     -1.41741884941102      0.00108956317991
C   1.22364771588843     -0.71527537726392      0.01109518512883
C   2.44567064933149     -1.42964328900682     -0.00065482763106
C   3.67686670284649     -0.72670743155550     -0.00479541202602
C   6.13224884641929     -0.73997883984993     -0.00632338623858
C   4.90351914550401     -1.44445752054090      0.00751768830159
C   8.59901484869081      0.63260386666793     -0.00101133422380
C   8.59174548810050     -0.72485086719319      0.00072504603735
C   7.36486276438985     -1.47033266560598      0.00049486934466
H   -9.52830597181814      1.27684744919284     -0.00270163681798
H   9.54141097460619      1.17457248844457     -0.00206336648518
C   -7.36983790976868     -2.77954514593389      0.00312634335708
C   -4.92459910905015     -2.80843725734101     -0.00460528907921
C   -6.16662249566744     -3.51665219282533      0.00169655107992
C   -3.70251035970491     -3.52468154912026      0.00571878010666
C   -2.46764698511392     -2.82132596280400     -0.00632585824990
C   -0.01513347410770     -2.83314164539971     -0.00604426974092
C   -1.24712184122656     -3.53473217556300      0.00551968366725
C   1.20924506964357     -3.54791467864352      0.00805871345849
C   2.43733602215464     -2.84764173817541     -0.00608104485234
C   4.89430234377080     -2.86112296828604     -0.00526030478103
C   3.66461525504104     -3.56421984553201      0.00761911515957
C   6.12863901474565     -3.58258405771778      0.00096495711699
C   7.33967266469532     -2.85841330737039      0.00248018319869
H   -9.54144911125902     -1.17456346666430      0.00226083090216
H   9.52826186807155     -1.27691907390448      0.00197485379837
H   -8.31516504384864     -3.31814985321231      0.00729857188773
H   8.27915514249207     -3.40714078989363      0.00681973918158
C   -6.14499418870218     -4.92764727278338      0.00302254913999
C   -3.70678334799751     -4.94126171411716     -0.00679841894792
C   -4.95559005800169     -5.64349397349412      0.00116871569699
C   -2.48612132622665     -5.65478557440947      0.00614125209662
C   -1.25405833548005     -4.95612205000132     -0.00503435388927
C   1.20101257386816     -4.96928038819302     -0.00385322963129
C   -0.03033667441341     -5.66952030313900      0.00398997003238
C   3.65375010132847     -4.98074377541453     -0.00309522988330
C   2.42549269587528     -5.68117463552727      0.00628170066869
C   6.09196561781097     -4.99325796338655      0.00325918379042
C   4.89497644461045     -5.69634842095790      0.00202298796027
H   -7.08989238804069     -5.46699984223871      0.00742531082125
H   7.03105520920009     -5.54265853633254      0.00683896355417
C   -4.92354532219813     -7.07882109967734      0.00061394679214
C   -2.48534208823777     -7.08772807792913     -0.00189594564379
C   -3.75168589177895     -7.76394715763627     -0.00170126671874
C   -0.03794895698805     -7.09946487446944     -0.00168022049625
C   -1.27795610040136     -7.77290438466689     -0.00366491325785
C   2.40944432072629     -7.11402201200282     -0.00081701968533
C   1.19474993715296     -7.78618536556242     -0.00296931056689
C   4.84762105249800     -7.13126211057943      0.00168979497423
C   3.66847160587561     -7.80378799294376     -0.00065863938960
H   -5.86994035041618     -7.61383059804164      0.00215798365757
H   5.78824962538815     -7.67633218931421      0.00281691445618
H   -3.75352693944918     -8.85107156923607     -0.00353718114765
H   -1.28430440589466     -8.86087539249706     -0.00809229711623
H   1.18922157469537     -8.87416062058945     -0.00706194725726
H   3.65854661482387     -8.89086063405326     -0.00231318081200

    units angstrom      # Angstroms are the default
    no_reorient         # Geometry fixed, default
    symmetry c1         # C1 symmetry, default
}

set {
    scf_type DF         # Density fitting, faster than exact integrals
    freeze_core True    # Freeze core electrons
    basis jun-cc-pVDZ   # Jun-cc-pVDZ basis set, recommended for sSAPT0 in https://doi.org/10.1063/1.4867135
}

energy('ssapt0')        # Compute sSAPT0 energy, includes also SAPT0
--------------------------------------------------------------------------

  //              Dimer HF             //
    Molecular point group: c1
  Charge       = -1
  Multiplicity = 1
  Basis Set: JUN-CC-PVDZ
    Blend: JUN-CC-PVDZ
  Basis Set: (JUN-CC-PVDZ AUX)
    Blend: JUN-CC-PVDZ-JKFIT
  @DF-RHF Final Energy: -4073.10150109971801
    Total Energy =                      -4073.1015010997180070
 Dipole X            :          0.0026280           -0.0000548            0.0025732
 Dipole Y            :          0.0021365           -0.0002464            0.0018901
 Dipole Z            :         14.7081785          -18.4489458           -3.7407673
 Magnitude           :                                                    3.7407686
  //            Monomer A HF           //
    Molecular point group: c1
  Multiplicity = 1
  Basis Set: JUN-CC-PVDZ
    Blend: JUN-CC-PVDZ
  Basis Set: (JUN-CC-PVDZ AUX)
    Blend: JUN-CC-PVDZ-JKFIT
  @DF-RHF Final Energy:  -422.77491834047532
    Total Energy =                       -422.7749183404753239
  //            Monomer B HF           //
    Molecular point group: c1

    Geometry (in Angstrom), charge = 0, multiplicity = 1:

       Center              X                  Y                   Z               Mass
    ------------   -----------------  -----------------  -----------------  -----------------
      Gh(B)          -0.000201921932     0.000288800891     2.886516752617    11.009305360000
      Gh(F)          -0.000004162732     0.000014527991     4.299301752617    18.998403162730
      Gh(F)           1.147855837268     0.675795727991     2.415375752617    18.998403162730
      Gh(F)           0.011913897268    -1.331996472009     2.415577752617    18.998403162730
      Gh(F)          -1.159670162732     0.656088027991     2.415656752617    18.998403162730
         C           -3.668445426752     7.803766698073    -0.211617206047    12.000000000000
         C           -4.847602882078     7.131256359331    -0.213983780980    12.000000000000
         C           -4.894963461907     5.696344931522    -0.214556692078    12.000000000000
         C           -3.653744841505     4.980744868950    -0.206896250349    12.000000000000
         C           -2.409429284226     7.113995564665    -0.211422863787    12.000000000000
         C           -2.425481506836     5.681136478894    -0.218427752657    12.000000000000
         C           -1.194748179167     7.786158722300    -0.209950683245    12.000000000000
         C            0.037954866205     7.099436173748    -0.212121387550    12.000000000000
         C            0.030328424687     5.669504087695    -0.217604772466    12.000000000000
         C           -1.200988670637     4.969284875906    -0.208635038532    12.000000000000
         C            1.277953663083     7.772873971185    -0.210745538990    12.000000000000
         C            2.485353921992     7.087711413228    -0.213020026894    12.000000000000
         C            2.486124522185     5.654785338231    -0.219957775882    12.000000000000
         C            1.254078756912     4.956092641655    -0.208329834294    12.000000000000
         C            3.751710428674     7.763926678971    -0.212893175514    12.000000000000
         C            4.923561893453     7.078795304981    -0.214949656222    12.000000000000
         C            4.955603108594     5.643461991360    -0.215110069029    12.000000000000
         C            3.706797371473     4.941224736324    -0.210018508859    12.000000000000
         H           -3.658525300490     8.890841947126    -0.209932217797     1.007825032230
         H           -1.189217492488     8.874135615351    -0.205978806804     1.007825032230
         H            1.284290076155     8.860847963479    -0.206586714849     1.007825032230
         H            3.753537924068     8.851049806963    -0.211370651198     1.007825032230
         H            5.869954540475     7.613809362646    -0.215875023264     1.007825032230
         H           -5.788235870234     7.676316740925    -0.215543628336     1.007825032230
         C           -6.091978121428     4.993274541634    -0.216428932569    12.000000000000
         C           -6.128665643049     3.582594696789    -0.215227755540    12.000000000000
         C           -3.664583902777     3.564196707735    -0.218152850158    12.000000000000
         C           -4.894302367430     2.861095303891    -0.208983865173    12.000000000000
         C           -2.437339157630     2.847626185075    -0.206321071621    12.000000000000
         C           -1.209232020328     3.547901462969    -0.220000098413    12.000000000000
         C            1.247137409430     3.534695279420    -0.220808704818    12.000000000000
         C            0.015171876837     2.833126367296    -0.209124521594    12.000000000000
         C            2.467641009709     2.821304505246    -0.209024463470    12.000000000000
         C            3.702545311848     3.524674682415    -0.222512424313    12.000000000000
         C            6.144976223652     4.927586894122    -0.216343514241    12.000000000000
         C            6.166584196130     3.516599003933    -0.214176960804    12.000000000000
         C            4.924605795728     2.808422453345    -0.207638214567    12.000000000000
         H            7.089901346909     5.466902294214    -0.220105395090     1.007825032230
         H           -7.031045913833     5.542702480848    -0.220662147520     1.007825032230
         C           -7.339702203855     2.858426062570    -0.216854922982    12.000000000000
         C           -7.364886120791     1.470337899574    -0.215089384854    12.000000000000
         C           -4.903508771679     1.444441340151    -0.219805649046    12.000000000000
         C           -6.132261315343     0.739953885044    -0.207515605063    12.000000000000
         C           -3.676878963248     0.726711670664    -0.209177932646    12.000000000000
         C           -2.445660748797     1.429655661253    -0.219487642848    12.000000000000
         C           -1.223604844033     0.715339029625    -0.208058378316    12.000000000000
         C            0.007633706582     1.417397677228    -0.209592724599    12.000000000000
         C            1.231215645015     0.702131218578    -0.228419310255    12.000000000000
         C            2.460816937799     1.403306564116    -0.208914801364    12.000000000000
         C            3.684426091464     0.687212956203    -0.209743587641    12.000000000000
         C            4.918704738807     1.391749089180    -0.222145409277    12.000000000000
         C            7.369797915229     2.779496731175    -0.215937380596    12.000000000000
         C            7.380158503390     1.391232035846    -0.214390697751    12.000000000000
         C            6.139795376391     0.674133151191    -0.208062355939    12.000000000000
         H           -8.279194962078     3.407132569115    -0.221152475103     1.007825032230
         H            8.315109308748     3.318132624614    -0.220147956396     1.007825032230
         C           -8.591760100313     0.724847081035    -0.214748957237    12.000000000000
         C           -8.599028766435    -0.632625278238    -0.212625832654    12.000000000000
         C           -6.139817301850    -0.674122109163    -0.219615173989    12.000000000000
         C           -7.380188274869    -1.391251661591    -0.212199112448    12.000000000000
         C           -4.918688642988    -1.391740490039    -0.207274675839    12.000000000000
         C           -3.684442458416    -0.687222787745    -0.218306915904    12.000000000000
         C           -2.460821202979    -1.403330650834    -0.207763829715    12.000000000000
         C           -1.231166175052    -0.702159336890    -0.219884208506    12.000000000000
         C           -0.007573788119    -1.417404321420    -0.212427684203    12.000000000000
         C            1.223643553157    -0.715260849273    -0.202422062254    12.000000000000
         C            2.445666486600    -1.429628761016    -0.214172075014    12.000000000000
         C            3.676862540115    -0.726692903565    -0.218312659409    12.000000000000
         C            6.132244683688    -0.739964311859    -0.219840633621    12.000000000000
         C            4.903514982772    -1.444442992550    -0.205999559081    12.000000000000
         C            8.599010685959     0.632618394658    -0.214528581607    12.000000000000
         C            8.591741325369    -0.724836339203    -0.212792201346    12.000000000000
         C            7.364858601658    -1.470318137615    -0.213022378038    12.000000000000
         H           -9.528310134550     1.276861977183    -0.216218884201     1.007825032230
         H            9.541406811874     1.174587016435    -0.215580613868     1.007825032230
         C           -7.369842072500    -2.779530617943    -0.210390904026    12.000000000000
         C           -4.924603271782    -2.808422729350    -0.218122536462    12.000000000000
         C           -6.166626658399    -3.516637664835    -0.211820696303    12.000000000000
         C           -3.702514522437    -3.524667021130    -0.207798467276    12.000000000000
         C           -2.467651147846    -2.821311434813    -0.219843105633    12.000000000000
         C           -0.015137636839    -2.833127117409    -0.219561517124    12.000000000000
         C           -1.247126003958    -3.534717647572    -0.207997563716    12.000000000000
         C            1.209240906912    -3.547900150653    -0.205458533924    12.000000000000
         C            2.437331859423    -2.847627210185    -0.219598292235    12.000000000000
         C            4.894298181039    -2.861108440295    -0.218777552164    12.000000000000
         C            3.664611092309    -3.564205317541    -0.205898132223    12.000000000000
         C            6.128634852014    -3.582569529727    -0.212552290266    12.000000000000
         C            7.339668501964    -2.858398779380    -0.211037064184    12.000000000000
         H           -9.541453273991    -1.174548938674    -0.211256416481     1.007825032230
         H            9.528257705340    -1.276904545914    -0.211542393585     1.007825032230
         H           -8.315169206580    -3.318135325222    -0.206218675495     1.007825032230
         H            8.279150979760    -3.407126261903    -0.206697508201     1.007825032230
         C           -6.144998351434    -4.927632744793    -0.210494698243    12.000000000000
         C           -3.706787510729    -4.941247186127    -0.220315666331    12.000000000000
         C           -4.955594220733    -5.643479445504    -0.212348531686    12.000000000000
         C           -2.486125488958    -5.654771046419    -0.207375995286    12.000000000000
         C           -1.254062498212    -4.956107522011    -0.218551601272    12.000000000000
         C            1.201008411136    -4.969265860202    -0.217370477014    12.000000000000
         C           -0.030340837145    -5.669505775148    -0.209527277351    12.000000000000
         C            3.653745938597    -4.980729247424    -0.216612477266    12.000000000000
         C            2.425488533144    -5.681160107537    -0.207235546714    12.000000000000
         C            6.091961455079    -4.993243435396    -0.210258063592    12.000000000000
         C            4.894972281879    -5.696333892967    -0.211494259423    12.000000000000
         H           -7.089896550772    -5.466985314248    -0.206091936562     1.007825032230
         H            7.031051046468    -5.542644008342    -0.206678283829     1.007825032230
         C           -4.923549484930    -7.078806571687    -0.212903300591    12.000000000000
         C           -2.485346250970    -7.087713549939    -0.215413193027    12.000000000000
         C           -3.751690054511    -7.763932629646    -0.215218514102    12.000000000000
         C           -0.037953119720    -7.099450346479    -0.215197467879    12.000000000000
         C           -1.277960263133    -7.772889856676    -0.217182160641    12.000000000000
         C            2.409440157995    -7.114007484012    -0.214334267068    12.000000000000
         C            1.194745774421    -7.786170837572    -0.216486557950    12.000000000000
         C            4.847616889766    -7.131247582589    -0.211827452409    12.000000000000
         C            3.668467443144    -7.803773464953    -0.214175886773    12.000000000000
         H           -5.869944513148    -7.613816070051    -0.211359263725     1.007825032230
         H            5.788245462656    -7.676317661324    -0.210700332927     1.007825032230
         H           -3.753531102181    -8.851057041246    -0.217054428531     1.007825032230
         H           -1.284308568626    -8.860860864507    -0.221609544499     1.007825032230
         H            1.189217411964    -8.874146092599    -0.220579194640     1.007825032230
         H            3.658542452092    -8.890846106063    -0.215830428195     1.007825032230

  Charge       = 0
  Multiplicity = 1
  Basis Set: JUN-CC-PVDZ
    Blend: JUN-CC-PVDZ
  Basis Set: (JUN-CC-PVDZ AUX)
    Blend: JUN-CC-PVDZ-JKFIT

    Orbital Energies [Eh]
    ---------------------

    Doubly Occupied:

       1A    -11.264097     2A    -11.263744     3A    -11.263738
       4A    -11.263335     5A    -11.263332     6A    -11.263290
       7A    -11.263148     8A    -11.263135     9A    -11.263125
      10A    -11.262898    11A    -11.262774    12A    -11.262769
      13A    -11.262277    14A    -11.262273    15A    -11.262240
      16A    -11.262233    17A    -11.262127    18A    -11.262120
      19A    -11.262077    20A    -11.262035    21A    -11.262031
      22A    -11.261921    23A    -11.261916    24A    -11.261768
      25A    -11.261756    26A    -11.261738    27A    -11.261732
      28A    -11.261689    29A    -11.261680    30A    -11.261582
      31A    -11.261564    32A    -11.261560    33A    -11.261557
      34A    -11.261535    35A    -11.261534    36A    -11.261517
      37A    -11.261340    38A    -11.261331    39A    -11.261326
      40A    -11.261319    41A    -11.261313    42A    -11.261311
      43A    -11.261293    44A    -11.261277    45A    -11.261273
      46A    -11.261247    47A    -11.261245    48A    -11.261237
      49A    -11.261063    50A    -11.261037    51A    -11.261030
      52A    -11.260963    53A    -11.260960    54A    -11.260905
      55A    -11.259917    56A    -11.259903    57A    -11.259901
      58A    -11.259871    59A    -11.259869    60A    -11.259853
      61A    -11.259286    62A    -11.259261    63A    -11.259258
      64A    -11.259204    65A    -11.259202    66A    -11.259172
      67A    -11.258919    68A    -11.258901    69A    -11.258898
      70A    -11.258870    71A    -11.258868    72A    -11.258856
      73A    -11.254534    74A    -11.254534    75A    -11.254529
      76A    -11.254528    77A    -11.254528    78A    -11.254526
      79A    -11.253658    80A    -11.253657    81A    -11.253655
      82A    -11.253654    83A    -11.253651    84A    -11.253650
      85A    -11.253574    86A    -11.253573    87A    -11.253571
      88A    -11.253569    89A    -11.253567    90A    -11.253566
      91A    -11.253062    92A    -11.253061    93A    -11.253057
      94A    -11.253056    95A    -11.253056    96A    -11.253054
      97A     -1.253918    98A     -1.238988    99A     -1.238987
     100A     -1.220461   101A     -1.220456   102A     -1.215411
     103A     -1.201042   104A     -1.195606   105A     -1.188124
     106A     -1.188121   107A     -1.173768   108A     -1.173765
     109A     -1.155619   110A     -1.155616   111A     -1.152687
     112A     -1.144727   113A     -1.144724   114A     -1.128562
     115A     -1.114703   116A     -1.113166   117A     -1.112460
     118A     -1.112444   119A     -1.111625   120A     -1.088421
     121A     -1.088406   122A     -1.076965   123A     -1.076963
     124A     -1.067607   125A     -1.067579   126A     -1.064952
     127A     -1.046797   128A     -1.046789   129A     -1.040477
     130A     -1.038739   131A     -1.038738   132A     -1.025227
     133A     -1.021357   134A     -1.021305   135A     -1.007180
     136A     -1.006807   137A     -1.003794   138A     -1.000477
     139A     -1.000429   140A     -0.991080   141A     -0.970979
     142A     -0.970930   143A     -0.955883   144A     -0.955827
     145A     -0.905572   146A     -0.905555   147A     -0.905529
     148A     -0.905515   149A     -0.904305   150A     -0.892349
     151A     -0.892289   152A     -0.890348   153A     -0.890290
     154A     -0.889450   155A     -0.872219   156A     -0.869063
     157A     -0.851540   158A     -0.847854   159A     -0.847832
     160A     -0.845583   161A     -0.843010   162A     -0.834559
     163A     -0.834550   164A     -0.828118   165A     -0.828114
     166A     -0.784544   167A     -0.784533   168A     -0.783648
     169A     -0.783621   170A     -0.782280   171A     -0.782260
     172A     -0.782021   173A     -0.766990   174A     -0.760775
     175A     -0.750557   176A     -0.733486   177A     -0.727066
     178A     -0.727053   179A     -0.725077   180A     -0.724540
     181A     -0.724521   182A     -0.718467   183A     -0.713755
     184A     -0.713749   185A     -0.699572   186A     -0.699559
     187A     -0.686097   188A     -0.685957   189A     -0.685953
     190A     -0.682173   191A     -0.682163   192A     -0.678756
     193A     -0.653615   194A     -0.650863   195A     -0.650833
     196A     -0.649792   197A     -0.649776   198A     -0.649566
     199A     -0.640905   200A     -0.640878   201A     -0.640088
     202A     -0.639163   203A     -0.636006   204A     -0.635979
     205A     -0.629137   206A     -0.617699   207A     -0.615304
     208A     -0.615284   209A     -0.608798   210A     -0.608791
     211A     -0.599110   212A     -0.599080   213A     -0.598732
     214A     -0.598596   215A     -0.598574   216A     -0.598008
     217A     -0.595067   218A     -0.595054   219A     -0.594715
     220A     -0.594210   221A     -0.591941   222A     -0.591939
     223A     -0.587368   224A     -0.577798   225A     -0.577788
     226A     -0.575660   227A     -0.575657   228A     -0.573379
     229A     -0.569571   230A     -0.568116   231A     -0.568092
     232A     -0.566743   233A     -0.566732   234A     -0.560915
     235A     -0.558701   236A     -0.558682   237A     -0.558428
     238A     -0.554360   239A     -0.550543   240A     -0.547476
     241A     -0.544255   242A     -0.535026   243A     -0.534989
     244A     -0.533526   245A     -0.533504   246A     -0.528073
     247A     -0.528057   248A     -0.527767   249A     -0.517139
     250A     -0.517104   251A     -0.515344   252A     -0.515338
     253A     -0.509639   254A     -0.509623   255A     -0.498023
     256A     -0.496439   257A     -0.496413   258A     -0.493786
     259A     -0.493774   260A     -0.489423   261A     -0.481448
     262A     -0.477410   263A     -0.477408   264A     -0.473989
     265A     -0.469428   266A     -0.466514   267A     -0.466509
     268A     -0.458783   269A     -0.446657   270A     -0.446597
     271A     -0.441027   272A     -0.440759   273A     -0.440736
     274A     -0.434680   275A     -0.433904   276A     -0.407362
     277A     -0.407339   278A     -0.386378   279A     -0.386329
     280A     -0.385727   281A     -0.385726   282A     -0.383722
     283A     -0.354307   284A     -0.354290   285A     -0.350641
     286A     -0.338077   287A     -0.335562   288A     -0.335488
     289A     -0.332707   290A     -0.332700   291A     -0.307022
     292A     -0.301909   293A     -0.301847   294A     -0.300841
     295A     -0.286159   296A     -0.256479   297A     -0.253456
     298A     -0.253403   299A     -0.204252   300A     -0.204163

  @DF-RHF Final Energy: -3650.34024713229064

   => Energetics <=

    Nuclear Repulsion Energy =          15611.4211649754324753
    One-Electron Energy =              -36072.1502459318799083
    Two-Electron Energy =               16810.3888338241558813
    Total Energy =                      -3650.3402471322915517
 Dipole X            :          0.0001647            0.0002304            0.0003951
 Dipole Y            :          0.0014494           -0.0013052            0.0001442
 Dipole Z            :        242.0919875         -242.0900805            0.0019070
 Magnitude           :                                                    0.0019529

    SAPT Results
  --------------------------------------------------------------------------------------------------------
    Electrostatics                 -7.23574962 [mEh]      -4.54050144 [kcal/mol]     -18.99745802 [kJ/mol]
      Elst10,r                     -7.23574962 [mEh]      -4.54050144 [kcal/mol]     -18.99745802 [kJ/mol]

    Exchange                       48.46459701 [mEh]      30.41199377 [kcal/mol]     127.24378193 [kJ/mol]
      Exch10                       48.46459701 [mEh]      30.41199377 [kcal/mol]     127.24378193 [kJ/mol]
      Exch10(S^2)                  48.19224109 [mEh]      30.24108785 [kcal/mol]     126.52871154 [kJ/mol]

    Induction                     -27.56447434 [mEh]     -17.29696879 [kcal/mol]     -72.37051741 [kJ/mol]
      Ind20,r                     -42.75148727 [mEh]     -26.82696328 [kcal/mol]    -112.24401437 [kJ/mol]
      Exch-Ind20,r                 19.14957195 [mEh]      12.01653782 [kcal/mol]      50.27719422 [kJ/mol]
      delta HF,r (2)               -3.96255902 [mEh]      -2.48654332 [kcal/mol]     -10.40369727 [kJ/mol]

    Dispersion                    -20.86458278 [mEh]     -13.09272336 [kcal/mol]     -54.77995455 [kJ/mol]
      Disp20                      -26.14923363 [mEh]     -16.40889183 [kcal/mol]     -68.65480343 [kJ/mol]
      Exch-Disp20                   5.28465084 [mEh]       3.31616847 [kcal/mol]      13.87484887 [kJ/mol]
      Disp20 (SS)                 -13.07461681 [mEh]      -8.20444592 [kcal/mol]     -34.32740171 [kJ/mol]
      Disp20 (OS)                 -13.07461681 [mEh]      -8.20444592 [kcal/mol]     -34.32740171 [kJ/mol]
      Exch-Disp20 (SS)              2.95937964 [mEh]       1.85703876 [kcal/mol]       7.76985019 [kJ/mol]
      Exch-Disp20 (OS)              2.32527120 [mEh]       1.45912971 [kcal/mol]       6.10499869 [kJ/mol]

  Total HF                         13.66437305 [mEh]       8.57452354 [kcal/mol]      35.87580649 [kJ/mol]
  Total SAPT0                      -7.20020974 [mEh]      -4.51819982 [kcal/mol]     -18.90414806 [kJ/mol]

  Special recipe for scaled SAPT0 (see Manual):
    Electrostatics sSAPT0          -7.23574962 [mEh]      -4.54050144 [kcal/mol]     -18.99745802 [kJ/mol]
    Exchange sSAPT0                48.46459701 [mEh]      30.41199377 [kcal/mol]     127.24378193 [kJ/mol]
    Induction sSAPT0              -27.23796763 [mEh]     -17.09208273 [kcal/mol]     -71.51327416 [kJ/mol]
    Dispersion sSAPT0             -20.77447769 [mEh]     -13.03618156 [kcal/mol]     -54.54338367 [kJ/mol]
  Total sSAPT0                     -6.78359793 [mEh]      -4.25677197 [kcal/mol]     -17.81033392 [kJ/mol]
  --------------------------------------------------------------------------------------------------------

*** Psi4 exiting successfully. Buy a developer a beer!
