                               Psi4 1.9 release

  ==> Input File <==

--------------------------------------------------------------------------
memory 48 GB # how much memory is available ! Depends on the nodes/cores !

molecule dimer {
# monomer A
-1 1    # Charge and multiplicity
B -1.977592e-04  2.742729e-04 -2.699966
F  1.123153e-16  1.430594e-17 -1.287181
F  1.147860e+00  6.757812e-01 -3.171107
F  1.191806e-02 -1.332011e+00 -3.170905
F -1.159666e+00  6.560735e-01 -3.170826
--
# monomer B
0 1     # Charge and multiplicity
C   1.22531237526482      0.70753866091955      0.00613762728373
C   1.22532433589282     -0.70753852257020     -0.00619318228664
C   -0.00000567409046      1.41496628609039     -0.00672680580738
C   2.45644923379077      1.41832825917820      0.00902448468363
C   0.00001130712078     -1.41497612663474      0.00347275151708
C   -1.22530046906674      0.70754574598412      0.00838914760619
C   2.45643823516184     -1.41832293188077     -0.00843833914343
C   -0.00000085313587      2.83680140328112     -0.00913035594137
C   3.68182717731192      0.70931832800114     -0.00808954934571
C   2.45512052870677      2.83422403348893     -0.00819210630633
C   3.68182158506039     -0.70933346742900      0.00798293467272
C   -1.22531311884624     -0.70752714354401     -0.00512042085974
C   1.22670006104402      3.54346985599427      0.00816696660346
C   0.00000526469929     -2.83678176723568      0.00832091913869
C   -2.45643555300670      1.41831729028492      0.00842454345199
C   2.45512389762097     -2.83422965658853      0.00783102630520
C   -1.22671388474763      3.54346943575023      0.00827029982280
C   4.91451777504333      1.42717324448953     -0.00160886631602
C   3.69315067131765      3.54279566454522     -0.00155906667985
C   -2.45643712022637     -1.41831290883911     -0.00846337726810
C   1.22670532178455     -3.54347386990643     -0.00780316414624
C   -2.45512491866593      2.83421703463423     -0.00818572995999
C   4.91452486062398     -1.42718653794377      0.00136387641845
C   1.22142509354026      4.97013443726031      0.00150231067809
C   4.89300870916237      2.82518837202648     -0.00039219795739
C   -1.22669652864725     -3.54347062507680     -0.00753595973677
C   -3.68181849668397      0.70932533873199     -0.00807686886569
C   3.69314758099218     -3.54280096939050      0.00148176697923
C   -1.22143177215231      4.97012866986289      0.00168580605083
C   6.13477145276790      0.68054831910577     -0.00083909176631
C   3.65678936045204      4.97295361556775     -0.00065042889723
C   -2.45512642789169     -2.83421472106065      0.00758666850712
C   -3.68181869921921     -0.70932533146830      0.00810055625144
C   4.89301309775526     -2.82519973363176      0.00021895393805
C   -0.00000059327114      5.65044773803267      0.00045449734393
C   6.13477559217374     -0.68055448207492      0.00042622874941
C   2.47813196269732      5.65357712333155      0.00063835075260
C   1.22142288457925     -4.97012668293268     -0.00129718634452
C   -3.69316190412301      3.54279732619245     -0.00139355922051
C   -1.22142804110313     -4.97011793159564     -0.00140994817719
C   -4.91452132810043      1.42717581899491     -0.00153192130862
C   3.65678749952045     -4.97295485423912      0.00080007163680
C   -2.47813805026426      5.65357479452875      0.00092287576113
C   -3.69314125872231     -3.54278984697859      0.00136564082345
C   -4.91451200321153     -1.42718062802730      0.00139857359209
C   -0.00000552908399     -5.65043791501335      0.00005899322272
C   -4.89302000425900      2.82518897091939     -0.00040227981744
C   2.47812647313991     -5.65357317188818     -0.00029052915548
C   -3.65679823041642      4.97295655404175     -0.00047374852278
C   -4.89299899901461     -2.82519139505969      0.00006491824035
C   -2.47812801824129     -5.65356579800621     -0.00056571680280
C   -6.13477002348955      0.68054913825639     -0.00086464346868
C   -3.65678835334731     -4.97294365097028      0.00058578382008
C   -6.13476456307132     -0.68055354348201      0.00040575295444
H   5.83528897565761      3.36927626695423      0.00396712770529
H   7.07385965258860      1.22821762089947     -0.00037744837300
H   4.60066374401555      5.51238117445323     -0.00014522814529
H   5.83528386714679     -3.36930568472863     -0.00423551337640
H   -0.00001167146422      6.73853104613662     -0.00389474766392
H   7.07386165167227     -1.22822657074368     -0.00008250934481
H   2.47331421164041      6.74068466339473      0.00017162982210
H   4.60066897122302     -5.51237575717576      0.00039007446835
H   -2.47331820069565      6.74068209160650      0.00047297644710
H   -0.00000978838621     -6.73852780445195      0.00458867820736
H   -5.83530143450167      3.36927132229595      0.00410314985360
H   2.47330840367253     -6.74068500242887      0.00027980126949
H   -4.60067436136587      5.51237839860371      0.00002010017831
H   -5.83527902699321     -3.36928859177951     -0.00451481925734
H   -2.47329986759855     -6.74067870613986     -0.00016951527498
H   -7.07385728692578      1.22822084484047     -0.00046143985387
H   -4.60067330624313     -5.51236229778631      0.00021776644566
H   -7.07385645456741     -1.22822025997701     -0.00017736581114

    units angstrom      # Angstroms are the default
    no_reorient         # Geometry fixed, default
    symmetry c1         # C1 symmetry, default
}

set {
    scf_type DF         # Density fitting, faster than exact integrals
    freeze_core True    # Freeze core electrons
    basis jun-cc-pVDZ   # Jun-cc-pVDZ basis set, recommended for sSAPT0 in https://doi.org/10.1063/1.4867135
}

energy('ssapt0')        # Compute sSAPT0 energy, includes also SAPT0
--------------------------------------------------------------------------

  //              Dimer HF             //
    Molecular point group: c1
  Charge       = -1
  Multiplicity = 1
  Basis Set: JUN-CC-PVDZ
    Blend: JUN-CC-PVDZ
  Basis Set: (JUN-CC-PVDZ AUX)
    Blend: JUN-CC-PVDZ-JKFIT
  @DF-RHF Final Energy: -2478.39199606748571
    Total Energy =                      -2478.3919960674847971
 Dipole X            :         -0.0002495            0.0000481           -0.0002014
 Dipole Y            :          0.0005607           -0.0001453            0.0004154
 Dipole Z            :        -13.8678780           16.5520561            2.6841780
 Magnitude           :                                                    2.6841781
  //            Monomer A HF           //
    Molecular point group: c1
  Multiplicity = 1
  Basis Set: JUN-CC-PVDZ
    Blend: JUN-CC-PVDZ
  Basis Set: (JUN-CC-PVDZ AUX)
    Blend: JUN-CC-PVDZ-JKFIT
  @DF-RHF Final Energy:  -422.77646637484031
    Total Energy =                       -422.7764663748403109
  //            Monomer B HF           //
    Molecular point group: c1

    Geometry (in Angstrom), charge = 0, multiplicity = 1:

       Center              X                  Y                   Z               Mass
    ------------   -----------------  -----------------  -----------------  -----------------
      Gh(B)          -0.000198161052     0.000273808717    -2.388060685537    11.009305360000
      Gh(F)          -0.000000401852    -0.000000464183    -0.975275685537    18.998403162730
      Gh(F)           1.147859598148     0.675780735817    -2.859201685537    18.998403162730
      Gh(F)           0.011917658148    -1.332011464183    -2.858999685537    18.998403162730
      Gh(F)          -1.159666401852     0.656073035817    -2.858920685537    18.998403162730
         C            1.225311973413     0.707538196736     0.318042941746    12.000000000000
         C            1.225323934041    -0.707538986754     0.305712132176    12.000000000000
         C           -0.000006075942     1.414965821907     0.305178508655    12.000000000000
         C            2.456448831939     1.418327794995     0.320929799146    12.000000000000
         C            0.000010905269    -1.414976590818     0.315378065980    12.000000000000
         C           -1.225300870919     0.707545281801     0.320294462069    12.000000000000
         C            2.456437833310    -1.418323396064     0.303466975319    12.000000000000
         C           -0.000001254988     2.836800939098     0.302774958521    12.000000000000
         C            3.681826775460     0.709317863818     0.303815765117    12.000000000000
         C            2.455120126855     2.834223569306     0.303713208156    12.000000000000
         C            3.681821183209    -0.709333931612     0.319888249135    12.000000000000
         C           -1.225313520698    -0.707527607727     0.306784893603    12.000000000000
         C            1.226699659192     3.543469391811     0.320072281066    12.000000000000
         C            0.000004862847    -2.836782231419     0.320226233601    12.000000000000
         C           -2.456435954859     1.418316826102     0.320329857915    12.000000000000
         C            2.455123495769    -2.834230120772     0.319736340768    12.000000000000
         C           -1.226714286599     3.543468971567     0.320175614285    12.000000000000
         C            4.914517373191     1.427172780306     0.310296448147    12.000000000000
         C            3.693150269466     3.542795200362     0.310346247783    12.000000000000
         C           -2.456437522078    -1.418313373022     0.303441937195    12.000000000000
         C            1.226704919933    -3.543474334090     0.304102150316    12.000000000000
         C           -2.455125320518     2.834216570451     0.303719584503    12.000000000000
         C            4.914524458772    -1.427187002127     0.313269190881    12.000000000000
         C            1.221424691688     4.970133973077     0.313407625141    12.000000000000
         C            4.893008307311     2.825187907843     0.311513116505    12.000000000000
         C           -1.226696930499    -3.543471089260     0.304369354726    12.000000000000
         C           -3.681818898536     0.709324874549     0.303828445597    12.000000000000
         C            3.693147179140    -3.542801433574     0.313387081442    12.000000000000
         C           -1.221432174004     4.970128205680     0.313591120514    12.000000000000
         C            6.134771050916     0.680547854922     0.311066222696    12.000000000000
         C            3.656788958600     4.972953151384     0.311254885565    12.000000000000
         C           -2.455126829744    -2.834215185244     0.319491982970    12.000000000000
         C           -3.681819101071    -0.709325795652     0.320005870714    12.000000000000
         C            4.893012695903    -2.825200197815     0.312124268401    12.000000000000
         C           -0.000000995123     5.650447273849     0.312359811807    12.000000000000
         C            6.134775190322    -0.680554946258     0.312331543212    12.000000000000
         C            2.478131560845     5.653576659148     0.312543665215    12.000000000000
         C            1.221422482727    -4.970127147116     0.310608128118    12.000000000000
         C           -3.693162305975     3.542796862009     0.310511755242    12.000000000000
         C           -1.221428442955    -4.970118395779     0.310495366285    12.000000000000
         C           -4.914521729952     1.427175354812     0.310373393154    12.000000000000
         C            3.656787097669    -4.972955318422     0.312705386099    12.000000000000
         C           -2.478138452116     5.653574330345     0.312828190224    12.000000000000
         C           -3.693141660574    -3.542790311162     0.313270955286    12.000000000000
         C           -4.914512405063    -1.427181092211     0.313303888055    12.000000000000
         C           -0.000005930936    -5.650438379197     0.311964307685    12.000000000000
         C           -4.893020406111     2.825188506736     0.311503034645    12.000000000000
         C            2.478126071288    -5.653573636072     0.311614785307    12.000000000000
         C           -3.656798632268     4.972956089858     0.311431565940    12.000000000000
         C           -4.892999400866    -2.825191859243     0.311970232703    12.000000000000
         C           -2.478128420093    -5.653566262190     0.311339597660    12.000000000000
         C           -6.134770425341     0.680548674073     0.311040670994    12.000000000000
         C           -3.656788755199    -4.972944115154     0.312491098283    12.000000000000
         C           -6.134764964923    -0.680554007665     0.312311067417    12.000000000000
         H            5.835288573806     3.369275802771     0.315872442168     1.007825032230
         H            7.073859250737     1.228217156716     0.311527866090     1.007825032230
         H            4.600663342164     5.512380710270     0.311760086317     1.007825032230
         H            5.835283465295    -3.369306148912     0.307669801086     1.007825032230
         H           -0.000012073316     6.738530581953     0.308010566799     1.007825032230
         H            7.073861249820    -1.228227034927     0.311822805118     1.007825032230
         H            2.473313809789     6.740684199211     0.312076944285     1.007825032230
         H            4.600668569371    -5.512376221359     0.312295388931     1.007825032230
         H           -2.473318602548     6.740681627423     0.312378290910     1.007825032230
         H           -0.000010190238    -6.738528268635     0.316493992670     1.007825032230
         H           -5.835301836354     3.369270858113     0.316008464316     1.007825032230
         H            2.473308001821    -6.740685466612     0.312185115732     1.007825032230
         H           -4.600674763218     5.512377934420     0.311925414641     1.007825032230
         H           -5.835279428845    -3.369289055963     0.307390495205     1.007825032230
         H           -2.473300269450    -6.740679170323     0.311735799188     1.007825032230
         H           -7.073857688778     1.228220380657     0.311443874609     1.007825032230
         H           -4.600673708095    -5.512362761970     0.312123080908     1.007825032230
         H           -7.073856856419    -1.228220724160     0.311727948652     1.007825032230

  Charge       = 0
  Multiplicity = 1
  Basis Set: JUN-CC-PVDZ
    Blend: JUN-CC-PVDZ
  Basis Set: (JUN-CC-PVDZ AUX)
    Blend: JUN-CC-PVDZ-JKFIT

    Orbital Energies [Eh]
    ---------------------

    Doubly Occupied:

       1A    -11.260611     2A    -11.260158     3A    -11.260155
       4A    -11.259397     5A    -11.259396     6A    -11.259207
       7A    -11.258968     8A    -11.258897     9A    -11.258896
      10A    -11.258581    11A    -11.258577    12A    -11.258475
      13A    -11.258420    14A    -11.258419    15A    -11.258414
      16A    -11.258381    17A    -11.258375    18A    -11.258358
      19A    -11.258352    20A    -11.258349    21A    -11.258343
      22A    -11.258274    23A    -11.258269    24A    -11.258023
      25A    -11.257255    26A    -11.257194    27A    -11.257193
      28A    -11.257061    29A    -11.257060    30A    -11.256978
      31A    -11.256346    32A    -11.256277    33A    -11.256276
      34A    -11.256168    35A    -11.256168    36A    -11.256122
      37A    -11.252247    38A    -11.252246    39A    -11.252245
      40A    -11.252243    41A    -11.252241    42A    -11.252240
      43A    -11.251341    44A    -11.251340    45A    -11.251339
      46A    -11.251326    47A    -11.251325    48A    -11.251322
      49A    -11.250809    50A    -11.250807    51A    -11.250806
      52A    -11.250804    53A    -11.250802    54A    -11.250801
      55A     -1.243901    56A     -1.219712    57A     -1.219711
      58A     -1.189464    59A     -1.189457    60A     -1.180774
      61A     -1.157501    62A     -1.148908    63A     -1.135359
      64A     -1.135352    65A     -1.113134    66A     -1.113129
      67A     -1.082329    68A     -1.082322    69A     -1.078453
      70A     -1.065927    71A     -1.065923    72A     -1.039323
      73A     -1.024155    74A     -1.021602    75A     -1.021559
      76A     -1.017676    77A     -1.012742    78A     -0.986923
      79A     -0.986877    80A     -0.961806    81A     -0.961756
      82A     -0.894221    83A     -0.894194    84A     -0.887771
      85A     -0.886048    86A     -0.885990    87A     -0.881287
      88A     -0.881239    89A     -0.861829    90A     -0.837373
      91A     -0.818134    92A     -0.816495    93A     -0.812013
      94A     -0.812004    95A     -0.794625    96A     -0.794615
      97A     -0.746501    98A     -0.744753    99A     -0.733283
     100A     -0.733275   101A     -0.732112   102A     -0.732088
     103A     -0.716380   104A     -0.698904   105A     -0.698893
     106A     -0.693487   107A     -0.693471   108A     -0.661163
     109A     -0.652967   110A     -0.651029   111A     -0.650186
     112A     -0.650180   113A     -0.639297   114A     -0.639294
     115A     -0.629607   116A     -0.627408   117A     -0.627392
     118A     -0.606479   119A     -0.605778   120A     -0.601557
     121A     -0.599657   122A     -0.599626   123A     -0.593557
     124A     -0.591056   125A     -0.591045   126A     -0.585239
     127A     -0.576370   128A     -0.576364   129A     -0.567270
     130A     -0.567255   131A     -0.565832   132A     -0.565813
     133A     -0.558596   134A     -0.554764   135A     -0.554757
     136A     -0.538527   137A     -0.538525   138A     -0.538145
     139A     -0.538138   140A     -0.529641   141A     -0.528194
     142A     -0.522793   143A     -0.522786   144A     -0.500441
     145A     -0.495557   146A     -0.493167   147A     -0.487800
     148A     -0.484984   149A     -0.481662   150A     -0.481654
     151A     -0.470348   152A     -0.470330   153A     -0.450876
     154A     -0.450797   155A     -0.439029   156A     -0.439020
     157A     -0.404681   158A     -0.404657   159A     -0.403343
     160A     -0.375394   161A     -0.375391   162A     -0.349076
     163A     -0.337523   164A     -0.336481   165A     -0.336423
     166A     -0.311021   167A     -0.298095   168A     -0.284265
     169A     -0.284211   170A     -0.224831   171A     -0.224765

  @DF-RHF Final Energy: -2055.89496953434900

   => Energetics <=

    Nuclear Repulsion Energy =           6452.5568002797781446
    One-Electron Energy =              -15636.5104011545190588
    Two-Electron Energy =                7128.0586313403928216
    Total Energy =                      -2055.8949695343490021
 Dipole X            :          0.0000074            0.0000419            0.0000493
 Dipole Y            :          0.0000685           -0.0000426            0.0000259
 Dipole Z            :       -201.5808777          201.5786996           -0.0021781
 Magnitude           :                                                    0.0021789

    SAPT Results
  --------------------------------------------------------------------------------------------------------
    Electrostatics               -207.43229807 [mEh]    -130.16573221 [kcal/mol]    -544.61342356 [kJ/mol]
      Elst10,r                   -207.43229807 [mEh]    -130.16573221 [kcal/mol]    -544.61342356 [kJ/mol]

    Exchange                      520.12044677 [mEh]     326.38050786 [kcal/mol]    1365.57604487 [kJ/mol]
      Exch10                      520.12044677 [mEh]     326.38050786 [kcal/mol]    1365.57604487 [kJ/mol]
      Exch10(S^2)                 495.00007273 [mEh]     310.61723516 [kcal/mol]    1299.62251191 [kJ/mol]

    Induction                     -33.24830700 [mEh]     -20.86362763 [kcal/mol]     -87.29341800 [kJ/mol]
      Ind20,r                    -288.56090842 [mEh]    -181.07470379 [kcal/mol]    -757.61656067 [kJ/mol]
      Exch-Ind20,r                215.06978745 [mEh]     134.95832915 [kcal/mol]     564.66564916 [kJ/mol]
      delta HF,r (2)               40.24281397 [mEh]      25.25274702 [kcal/mol]     105.65749351 [kJ/mol]

    Dispersion                    -55.37540320 [mEh]     -34.74859012 [kcal/mol]    -145.38810108 [kJ/mol]
      Disp20                      -86.73840668 [mEh]     -54.42917193 [kcal/mol]    -227.73165537 [kJ/mol]
      Exch-Disp20                  31.36300348 [mEh]      19.68058181 [kcal/mol]      82.34355429 [kJ/mol]
      Disp20 (SS)                 -43.36920334 [mEh]     -27.21458597 [kcal/mol]    -113.86582769 [kJ/mol]
      Disp20 (OS)                 -43.36920334 [mEh]     -27.21458597 [kcal/mol]    -113.86582769 [kJ/mol]
      Exch-Disp20 (SS)             15.47177531 [mEh]       9.70868558 [kcal/mol]      40.62114048 [kJ/mol]
      Exch-Disp20 (OS)             15.89122817 [mEh]       9.97189623 [kcal/mol]      41.72241381 [kJ/mol]

  Total HF                        279.43984170 [mEh]     175.35114802 [kcal/mol]     733.66920332 [kJ/mol]
  Total SAPT0                     224.06443850 [mEh]     140.60255790 [kcal/mol]     588.28110224 [kJ/mol]

  Special recipe for scaled SAPT0 (see Manual):
    Electrostatics sSAPT0        -207.43229807 [mEh]    -130.16573221 [kcal/mol]    -544.61342356 [kJ/mol]
    Exchange sSAPT0               520.12044677 [mEh]     326.38050786 [kcal/mol]    1365.57604487 [kJ/mol]
    Induction sSAPT0                1.18469100 [mEh]       0.74340483 [kcal/mol]       3.11040579 [kJ/mol]
    Dispersion sSAPT0             -50.35413895 [mEh]     -31.59769923 [kcal/mol]    -132.20477359 [kJ/mol]
  Total sSAPT0                    263.51870075 [mEh]     165.36048124 [kcal/mol]     691.86825351 [kJ/mol]
  --------------------------------------------------------------------------------------------------------

*** Psi4 exiting successfully. Buy a developer a beer!
