                               Psi4 1.9 release

  ==> Input File <==

--------------------------------------------------------------------------
memory 32 GB # how much memory is available ! Depends on the nodes/cores !

molecule dimer {
# monomer A
+1 1    # Charge and multiplicity
C  0.680067 -1.215929 5.408042
C -0.680504 -1.215545 5.406014
N -1.085635  0.102779 5.405016
C  0.000108  0.884180 5.401740
C -2.477365  0.570758 5.355610
N  1.085222  0.102779 5.405016
H  1.385146 -2.033368 5.415870
H -1.385302 -2.033214 5.406204
H -0.000009  1.965269 5.399993
C  2.478117  0.567877 5.421908
H  2.490592  1.658130 5.394563
H  2.967028  0.220701 6.335354
H  3.001428  0.176405 4.546425
H -2.857359  0.490799 4.333539
H -3.082679 -0.042306 6.025694
H -2.518128  1.610706 5.682594
--
# monomer B
0 1     # Charge and multiplicity
C   1.22531237526482      0.70753866091955      0.00613762728373
C   1.22532433589282     -0.70753852257020     -0.00619318228664
C   -0.00000567409046      1.41496628609039     -0.00672680580738
C   2.45644923379077      1.41832825917820      0.00902448468363
C   0.00001130712078     -1.41497612663474      0.00347275151708
C   -1.22530046906674      0.70754574598412      0.00838914760619
C   2.45643823516184     -1.41832293188077     -0.00843833914343
C   -0.00000085313587      2.83680140328112     -0.00913035594137
C   3.68182717731192      0.70931832800114     -0.00808954934571
C   2.45512052870677      2.83422403348893     -0.00819210630633
C   3.68182158506039     -0.70933346742900      0.00798293467272
C   -1.22531311884624     -0.70752714354401     -0.00512042085974
C   1.22670006104402      3.54346985599427      0.00816696660346
C   0.00000526469929     -2.83678176723568      0.00832091913869
C   -2.45643555300670      1.41831729028492      0.00842454345199
C   2.45512389762097     -2.83422965658853      0.00783102630520
C   -1.22671388474763      3.54346943575023      0.00827029982280
C   4.91451777504333      1.42717324448953     -0.00160886631602
C   3.69315067131765      3.54279566454522     -0.00155906667985
C   -2.45643712022637     -1.41831290883911     -0.00846337726810
C   1.22670532178455     -3.54347386990643     -0.00780316414624
C   -2.45512491866593      2.83421703463423     -0.00818572995999
C   4.91452486062398     -1.42718653794377      0.00136387641845
C   1.22142509354026      4.97013443726031      0.00150231067809
C   4.89300870916237      2.82518837202648     -0.00039219795739
C   -1.22669652864725     -3.54347062507680     -0.00753595973677
C   -3.68181849668397      0.70932533873199     -0.00807686886569
C   3.69314758099218     -3.54280096939050      0.00148176697923
C   -1.22143177215231      4.97012866986289      0.00168580605083
C   6.13477145276790      0.68054831910577     -0.00083909176631
C   3.65678936045204      4.97295361556775     -0.00065042889723
C   -2.45512642789169     -2.83421472106065      0.00758666850712
C   -3.68181869921921     -0.70932533146830      0.00810055625144
C   4.89301309775526     -2.82519973363176      0.00021895393805
C   -0.00000059327114      5.65044773803267      0.00045449734393
C   6.13477559217374     -0.68055448207492      0.00042622874941
C   2.47813196269732      5.65357712333155      0.00063835075260
C   1.22142288457925     -4.97012668293268     -0.00129718634452
C   -3.69316190412301      3.54279732619245     -0.00139355922051
C   -1.22142804110313     -4.97011793159564     -0.00140994817719
C   -4.91452132810043      1.42717581899491     -0.00153192130862
C   3.65678749952045     -4.97295485423912      0.00080007163680
C   -2.47813805026426      5.65357479452875      0.00092287576113
C   -3.69314125872231     -3.54278984697859      0.00136564082345
C   -4.91451200321153     -1.42718062802730      0.00139857359209
C   -0.00000552908399     -5.65043791501335      0.00005899322272
C   -4.89302000425900      2.82518897091939     -0.00040227981744
C   2.47812647313991     -5.65357317188818     -0.00029052915548
C   -3.65679823041642      4.97295655404175     -0.00047374852278
C   -4.89299899901461     -2.82519139505969      0.00006491824035
C   -2.47812801824129     -5.65356579800621     -0.00056571680280
C   -6.13477002348955      0.68054913825639     -0.00086464346868
C   -3.65678835334731     -4.97294365097028      0.00058578382008
C   -6.13476456307132     -0.68055354348201      0.00040575295444
H   5.83528897565761      3.36927626695423      0.00396712770529
H   7.07385965258860      1.22821762089947     -0.00037744837300
H   4.60066374401555      5.51238117445323     -0.00014522814529
H   5.83528386714679     -3.36930568472863     -0.00423551337640
H   -0.00001167146422      6.73853104613662     -0.00389474766392
H   7.07386165167227     -1.22822657074368     -0.00008250934481
H   2.47331421164041      6.74068466339473      0.00017162982210
H   4.60066897122302     -5.51237575717576      0.00039007446835
H   -2.47331820069565      6.74068209160650      0.00047297644710
H   -0.00000978838621     -6.73852780445195      0.00458867820736
H   -5.83530143450167      3.36927132229595      0.00410314985360
H   2.47330840367253     -6.74068500242887      0.00027980126949
H   -4.60067436136587      5.51237839860371      0.00002010017831
H   -5.83527902699321     -3.36928859177951     -0.00451481925734
H   -2.47329986759855     -6.74067870613986     -0.00016951527498
H   -7.07385728692578      1.22822084484047     -0.00046143985387
H   -4.60067330624313     -5.51236229778631      0.00021776644566
H   -7.07385645456741     -1.22822025997701     -0.00017736581114

    units angstrom      # Angstroms are the default
    no_reorient         # Geometry fixed, default
    symmetry c1         # C1 symmetry, default
}

set {
    scf_type DF         # Density fitting, faster than exact integrals
    freeze_core True    # Freeze core electrons
    basis jun-cc-pVDZ   # Jun-cc-pVDZ basis set, recommended for sSAPT0 in https://doi.org/10.1063/1.4867135
}

energy('ssapt0')        # Compute sSAPT0 energy, includes also SAPT0
--------------------------------------------------------------------------

  //              Dimer HF             //
    Molecular point group: c1
  Charge       = 1
  Multiplicity = 1
  Basis Set: JUN-CC-PVDZ
    Blend: JUN-CC-PVDZ
  Basis Set: (JUN-CC-PVDZ AUX)
    Blend: JUN-CC-PVDZ-JKFIT
  @DF-RHF Final Energy: -2359.20432966840326
    Total Energy =                      -2359.2043296684041707
 Dipole X            :          0.0036405            0.0006313            0.0042718
 Dipole Y            :         -1.5443244            1.8864948            0.3421704
 Dipole Z            :        -20.2691143           28.0925348            7.8234205
 Magnitude           :                                                    7.8309008
  //            Monomer A HF           //
    Molecular point group: c1
  Multiplicity = 1
  Basis Set: JUN-CC-PVDZ
    Blend: JUN-CC-PVDZ
  Basis Set: (JUN-CC-PVDZ AUX)
    Blend: JUN-CC-PVDZ-JKFIT
  @DF-RHF Final Energy:  -303.29761758210691
    Total Energy =                       -303.2976175821069091
  //            Monomer B HF           //
    Molecular point group: c1

    Geometry (in Angstrom), charge = 0, multiplicity = 1:

       Center              X                  Y                   Z               Mass
    ------------   -----------------  -----------------  -----------------  -----------------
      Gh(C)           0.680066520158    -1.215933861162     4.721197313413    12.000000000000
      Gh(C)          -0.680504479842    -1.215549861162     4.719169313413    12.000000000000
      Gh(N)          -1.085635479842     0.102774138838     4.718171313413    14.003074004430
      Gh(C)           0.000107520158     0.884175138838     4.714895313413    12.000000000000
      Gh(C)          -2.477365479842     0.570753138838     4.668765313413    12.000000000000
      Gh(N)           1.085221520158     0.102774138838     4.718171313413    14.003074004430
      Gh(H)           1.385145520158    -2.033372861162     4.729025313413     1.007825032230
      Gh(H)          -1.385302479842    -2.033218861162     4.719359313413     1.007825032230
      Gh(H)          -0.000009479842     1.965264138838     4.713148313413     1.007825032230
      Gh(C)           2.478116520158     0.567872138838     4.735063313413    12.000000000000
      Gh(H)           2.490591520158     1.658125138838     4.707718313413     1.007825032230
      Gh(H)           2.967027520158     0.220696138838     5.648509313413     1.007825032230
      Gh(H)           3.001427520158     0.176400138838     3.859580313413     1.007825032230
      Gh(H)          -2.857359479842     0.490794138838     3.646694313413     1.007825032230
      Gh(H)          -3.082679479842    -0.042310861162     5.338849313413     1.007825032230
      Gh(H)          -2.518128479842     1.610701138838     4.995749313413     1.007825032230
         C            1.225311895423     0.707533799757    -0.680707059304    12.000000000000
         C            1.225323856051    -0.707543383733    -0.693037868874    12.000000000000
         C           -0.000006153932     1.414961424928    -0.693571492395    12.000000000000
         C            2.456448753949     1.418323398016    -0.677820201904    12.000000000000
         C            0.000010827279    -1.414980987797    -0.683371935070    12.000000000000
         C           -1.225300948908     0.707540884822    -0.678455538981    12.000000000000
         C            2.456437755320    -1.418327793043    -0.695283025731    12.000000000000
         C           -0.000001332978     2.836796542119    -0.695975042529    12.000000000000
         C            3.681826697470     0.709313466839    -0.694934235933    12.000000000000
         C            2.455120048865     2.834219172327    -0.695036792894    12.000000000000
         C            3.681821105219    -0.709338328591    -0.678861751915    12.000000000000
         C           -1.225313598688    -0.707532004706    -0.691965107447    12.000000000000
         C            1.226699581202     3.543464994832    -0.678677719984    12.000000000000
         C            0.000004784858    -2.836786628398    -0.678523767449    12.000000000000
         C           -2.456436032848     1.418312429123    -0.678420143135    12.000000000000
         C            2.455123417779    -2.834234517751    -0.679013660282    12.000000000000
         C           -1.226714364589     3.543464574588    -0.678574386764    12.000000000000
         C            4.914517295202     1.427168383327    -0.688453552903    12.000000000000
         C            3.693150191476     3.542790803383    -0.688403753267    12.000000000000
         C           -2.456437600068    -1.418317770001    -0.695308063855    12.000000000000
         C            1.226704841943    -3.543478731069    -0.694647850734    12.000000000000
         C           -2.455125398508     2.834212173472    -0.695030416547    12.000000000000
         C            4.914524380782    -1.427191399106    -0.685480810169    12.000000000000
         C            1.221424613699     4.970129576098    -0.685342375909    12.000000000000
         C            4.893008229321     2.825183510864    -0.687236884545    12.000000000000
         C           -1.226697008489    -3.543475486239    -0.694380646324    12.000000000000
         C           -3.681818976526     0.709320477570    -0.694921555453    12.000000000000
         C            3.693147101150    -3.542805830553    -0.685362919608    12.000000000000
         C           -1.221432251994     4.970123808701    -0.685158880536    12.000000000000
         C            6.134770972926     0.680543457943    -0.687683778354    12.000000000000
         C            3.656788880610     4.972948754405    -0.687495115485    12.000000000000
         C           -2.455126907733    -2.834219582223    -0.679258018080    12.000000000000
         C           -3.681819179061    -0.709330192631    -0.678744130336    12.000000000000
         C            4.893012617914    -2.825204594794    -0.686625732649    12.000000000000
         C           -0.000001073113     5.650442876870    -0.686390189243    12.000000000000
         C            6.134775112332    -0.680559343237    -0.686418457838    12.000000000000
         C            2.478131482856     5.653572262169    -0.686206335835    12.000000000000
         C            1.221422404738    -4.970131544095    -0.688141872932    12.000000000000
         C           -3.693162383965     3.542792465030    -0.688238245808    12.000000000000
         C           -1.221428520945    -4.970122792758    -0.688254634764    12.000000000000
         C           -4.914521807942     1.427170957833    -0.688376607896    12.000000000000
         C            3.656787019679    -4.972959715401    -0.686044614950    12.000000000000
         C           -2.478138530106     5.653569933366    -0.685921810826    12.000000000000
         C           -3.693141738564    -3.542794708141    -0.685479045764    12.000000000000
         C           -4.914512483053    -1.427185489190    -0.685446112995    12.000000000000
         C           -0.000006008926    -5.650442776176    -0.686785693365    12.000000000000
         C           -4.893020484101     2.825184109757    -0.687246966405    12.000000000000
         C            2.478125993298    -5.653578033051    -0.687135215743    12.000000000000
         C           -3.656798710258     4.972951692879    -0.687318435110    12.000000000000
         C           -4.892999478856    -2.825196256222    -0.686779768347    12.000000000000
         C           -2.478128498083    -5.653570659169    -0.687410403390    12.000000000000
         C           -6.134770503331     0.680544277094    -0.687709330056    12.000000000000
         C           -3.656788833189    -4.972948512133    -0.686258902767    12.000000000000
         C           -6.134765042913    -0.680558404644    -0.686438933633    12.000000000000
         H            5.835288495816     3.369271405792    -0.682877558882     1.007825032230
         H            7.073859172747     1.228212759737    -0.687222134960     1.007825032230
         H            4.600663264174     5.512376313291    -0.686989914733     1.007825032230
         H            5.835283387305    -3.369310545891    -0.691080199964     1.007825032230
         H           -0.000012151306     6.738526184974    -0.690739434251     1.007825032230
         H            7.073861171831    -1.228231431906    -0.686927195932     1.007825032230
         H            2.473313731799     6.740679802232    -0.686673056765     1.007825032230
         H            4.600668491381    -5.512380618338    -0.686454612119     1.007825032230
         H           -2.473318680537     6.740677230444    -0.686371710140     1.007825032230
         H           -0.000010268228    -6.738532665614    -0.682256008380     1.007825032230
         H           -5.835301914343     3.369266461134    -0.682741536734     1.007825032230
         H            2.473307923831    -6.740689863591    -0.686564885318     1.007825032230
         H           -4.600674841208     5.512373537441    -0.686824586409     1.007825032230
         H           -5.835279506835    -3.369293452942    -0.691359505845     1.007825032230
         H           -2.473300347440    -6.740683567302    -0.687014201862     1.007825032230
         H           -7.073857766768     1.228215983678    -0.687306126441     1.007825032230
         H           -4.600673786085    -5.512367158949    -0.686626920142     1.007825032230
         H           -7.073856934409    -1.228225121139    -0.687022052398     1.007825032230

  Charge       = 0
  Multiplicity = 1
  Basis Set: JUN-CC-PVDZ
    Blend: JUN-CC-PVDZ
  Basis Set: (JUN-CC-PVDZ AUX)
    Blend: JUN-CC-PVDZ-JKFIT

    Orbital Energies [Eh]
    ---------------------

    Doubly Occupied:

       1A    -11.260568     2A    -11.260125     3A    -11.260122
       4A    -11.259413     5A    -11.259412     6A    -11.259241
       7A    -11.259031     8A    -11.258953     9A    -11.258952
      10A    -11.258627    11A    -11.258624    12A    -11.258553
      13A    -11.258492    14A    -11.258487    15A    -11.258482
      16A    -11.258454    17A    -11.258448    18A    -11.258431
      19A    -11.258421    20A    -11.258413    21A    -11.258408
      22A    -11.258312    23A    -11.258309    24A    -11.258012
      25A    -11.257347    26A    -11.257285    27A    -11.257284
      28A    -11.257150    29A    -11.257148    30A    -11.257065
      31A    -11.256442    32A    -11.256372    33A    -11.256369
      34A    -11.256262    35A    -11.256260    36A    -11.256214
      37A    -11.252307    38A    -11.252305    39A    -11.252304
      40A    -11.252302    41A    -11.252300    42A    -11.252296
      43A    -11.251422    44A    -11.251419    45A    -11.251417
      46A    -11.251412    47A    -11.251411    48A    -11.251406
      49A    -11.250869    50A    -11.250866    51A    -11.250865
      52A    -11.250863    53A    -11.250861    54A    -11.250857
      55A     -1.244093    56A     -1.219846    57A     -1.219840
      58A     -1.189570    59A     -1.189562    60A     -1.180981
      61A     -1.157586    62A     -1.149006    63A     -1.135530
      64A     -1.135518    65A     -1.113220    66A     -1.113216
      67A     -1.082460    68A     -1.082453    69A     -1.078634
      70A     -1.066008    71A     -1.066003    72A     -1.039423
      73A     -1.024303    74A     -1.021803    75A     -1.021755
      76A     -1.017752    77A     -1.012821    78A     -0.987049
      79A     -0.987002    80A     -0.961907    81A     -0.961856
      82A     -0.894318    83A     -0.894291    84A     -0.887964
      85A     -0.886216    86A     -0.886162    87A     -0.881422
      88A     -0.881374    89A     -0.861925    90A     -0.837434
      91A     -0.818232    92A     -0.816644    93A     -0.812161
      94A     -0.812156    95A     -0.794715    96A     -0.794703
      97A     -0.746646    98A     -0.744886    99A     -0.733445
     100A     -0.733440   101A     -0.732207   102A     -0.732183
     103A     -0.716525   104A     -0.699001   105A     -0.698985
     106A     -0.693613   107A     -0.693593   108A     -0.661256
     109A     -0.653147   110A     -0.651186   111A     -0.650279
     112A     -0.650274   113A     -0.639384   114A     -0.639377
     115A     -0.629741   116A     -0.627548   117A     -0.627534
     118A     -0.606469   119A     -0.605833   120A     -0.601685
     121A     -0.599763   122A     -0.599725   123A     -0.593655
     124A     -0.591251   125A     -0.591235   126A     -0.585301
     127A     -0.576420   128A     -0.576392   129A     -0.567348
     130A     -0.567334   131A     -0.565986   132A     -0.565969
     133A     -0.558754   134A     -0.554875   135A     -0.554869
     136A     -0.538617   137A     -0.538616   138A     -0.538237
     139A     -0.538222   140A     -0.529738   141A     -0.528170
     142A     -0.522899   143A     -0.522886   144A     -0.500527
     145A     -0.495635   146A     -0.493258   147A     -0.487856
     148A     -0.485093   149A     -0.481780   150A     -0.481772
     151A     -0.470358   152A     -0.470356   153A     -0.451047
     154A     -0.450971   155A     -0.439096   156A     -0.439088
     157A     -0.404779   158A     -0.404753   159A     -0.403398
     160A     -0.375450   161A     -0.375445   162A     -0.349152
     163A     -0.337606   164A     -0.336567   165A     -0.336533
     166A     -0.311121   167A     -0.298122   168A     -0.284367
     169A     -0.284319   170A     -0.224939   171A     -0.224878

  @DF-RHF Final Energy: -2055.89310054717589

   => Energetics <=

    Nuclear Repulsion Energy =           6452.5568002797772351
    One-Electron Energy =              -15636.4744620397959807
    Two-Electron Energy =                7128.0245612128428547
    Total Energy =                      -2055.8931005471758908
 Dipole X            :         -0.0001070           -0.0000085           -0.0001155
 Dipole Y            :          0.0029983           -0.0028843            0.0001141
 Dipole Z            :        443.8888284         -443.8997781           -0.0109497
 Magnitude           :                                                    0.0109509

    SAPT Results
  --------------------------------------------------------------------------------------------------------
    Electrostatics                 -9.75184950 [mEh]      -6.11937795 [kcal/mol]     -25.60347734 [kJ/mol]
      Elst10,r                     -9.75184950 [mEh]      -6.11937795 [kcal/mol]     -25.60347734 [kJ/mol]

    Exchange                        0.02221311 [mEh]       0.01393894 [kcal/mol]       0.05832052 [kJ/mol]
      Exch10                        0.02221311 [mEh]       0.01393894 [kcal/mol]       0.05832052 [kJ/mol]
      Exch10(S^2)                   0.02221303 [mEh]       0.01393889 [kcal/mol]       0.05832031 [kJ/mol]

    Induction                      -3.88190273 [mEh]      -2.43593074 [kcal/mol]     -10.19193421 [kJ/mol]
      Ind20,r                      -3.77832320 [mEh]      -2.37093360 [kcal/mol]      -9.91998619 [kJ/mol]
      Exch-Ind20,r                  0.00664459 [mEh]       0.00416954 [kcal/mol]       0.01744537 [kJ/mol]
      delta HF,r (2)               -0.11022412 [mEh]      -0.06916668 [kcal/mol]      -0.28939339 [kJ/mol]

    Dispersion                     -4.21433280 [mEh]      -2.64453376 [kcal/mol]     -11.06472925 [kJ/mol]
      Disp20                       -4.22127349 [mEh]      -2.64888910 [kcal/mol]     -11.08295201 [kJ/mol]
      Exch-Disp20                   0.00694068 [mEh]       0.00435535 [kcal/mol]       0.01822277 [kJ/mol]
      Disp20 (SS)                  -2.11063674 [mEh]      -1.32444455 [kcal/mol]      -5.54147601 [kJ/mol]
      Disp20 (OS)                  -2.11063674 [mEh]      -1.32444455 [kcal/mol]      -5.54147601 [kJ/mol]
      Exch-Disp20 (SS)              0.00483931 [mEh]       0.00303671 [kcal/mol]       0.01270560 [kJ/mol]
      Exch-Disp20 (OS)              0.00210138 [mEh]       0.00131863 [kcal/mol]       0.00551717 [kJ/mol]

  Total HF                        -13.61153912 [mEh]      -8.54136975 [kcal/mol]     -35.73709104 [kJ/mol]
  Total SAPT0                     -17.82587192 [mEh]     -11.18590351 [kcal/mol]     -46.80182028 [kJ/mol]

  Special recipe for scaled SAPT0 (see Manual):
    Electrostatics sSAPT0          -9.75184950 [mEh]      -6.11937795 [kcal/mol]     -25.60347734 [kJ/mol]
    Exchange sSAPT0                 0.02221311 [mEh]       0.01393894 [kcal/mol]       0.05832052 [kJ/mol]
    Induction sSAPT0               -3.88190266 [mEh]      -2.43593070 [kcal/mol]     -10.19193403 [kJ/mol]
    Dispersion sSAPT0              -4.21433273 [mEh]      -2.64453371 [kcal/mol]     -11.06472906 [kJ/mol]
  Total sSAPT0                    -17.82587178 [mEh]     -11.18590342 [kcal/mol]     -46.80181991 [kJ/mol]
  --------------------------------------------------------------------------------------------------------

*** Psi4 exiting successfully. Buy a developer a beer!
