                               Psi4 1.9 release

  ==> Input File <==

--------------------------------------------------------------------------
memory 48 GB # how much memory is available ! Depends on the nodes/cores !

molecule dimer {
# monomer A
+1 1    # Charge and multiplicity
C  0.680067 -0.008042 -5.115929
C -0.680504 -0.006014 -5.115545
N -1.085635 -0.005016 -3.797221
C  0.000108 -0.001740 -3.015820
C -2.477365  0.044390 -3.329242
N  1.085222 -0.005016 -3.797221
H  1.385146 -0.015870 -5.933368
H -1.385302 -0.006204 -5.933214
H -0.000009  0.000007 -1.934731
C  2.478117 -0.021908 -3.332123
H  2.490592  0.005437 -2.241870
H  2.967028 -0.935354 -3.679299
H  3.001428  0.853575 -3.723595
H -2.857359  1.066461 -3.409201
H -3.082679 -0.625694 -3.942306
H -2.518128 -0.282594 -2.289294
--
# monomer B
0 1     # Charge and multiplicity
C   1.22531237526482      0.70753866091955      0.00613762728373
C   1.22532433589282     -0.70753852257020     -0.00619318228664
C   -0.00000567409046      1.41496628609039     -0.00672680580738
C   2.45644923379077      1.41832825917820      0.00902448468363
C   0.00001130712078     -1.41497612663474      0.00347275151708
C   -1.22530046906674      0.70754574598412      0.00838914760619
C   2.45643823516184     -1.41832293188077     -0.00843833914343
C   -0.00000085313587      2.83680140328112     -0.00913035594137
C   3.68182717731192      0.70931832800114     -0.00808954934571
C   2.45512052870677      2.83422403348893     -0.00819210630633
C   3.68182158506039     -0.70933346742900      0.00798293467272
C   -1.22531311884624     -0.70752714354401     -0.00512042085974
C   1.22670006104402      3.54346985599427      0.00816696660346
C   0.00000526469929     -2.83678176723568      0.00832091913869
C   -2.45643555300670      1.41831729028492      0.00842454345199
C   2.45512389762097     -2.83422965658853      0.00783102630520
C   -1.22671388474763      3.54346943575023      0.00827029982280
C   4.91451777504333      1.42717324448953     -0.00160886631602
C   3.69315067131765      3.54279566454522     -0.00155906667985
C   -2.45643712022637     -1.41831290883911     -0.00846337726810
C   1.22670532178455     -3.54347386990643     -0.00780316414624
C   -2.45512491866593      2.83421703463423     -0.00818572995999
C   4.91452486062398     -1.42718653794377      0.00136387641845
C   1.22142509354026      4.97013443726031      0.00150231067809
C   4.89300870916237      2.82518837202648     -0.00039219795739
C   -1.22669652864725     -3.54347062507680     -0.00753595973677
C   -3.68181849668397      0.70932533873199     -0.00807686886569
C   3.69314758099218     -3.54280096939050      0.00148176697923
C   -1.22143177215231      4.97012866986289      0.00168580605083
C   6.13477145276790      0.68054831910577     -0.00083909176631
C   3.65678936045204      4.97295361556775     -0.00065042889723
C   -2.45512642789169     -2.83421472106065      0.00758666850712
C   -3.68181869921921     -0.70932533146830      0.00810055625144
C   4.89301309775526     -2.82519973363176      0.00021895393805
C   -0.00000059327114      5.65044773803267      0.00045449734393
C   6.13477559217374     -0.68055448207492      0.00042622874941
C   2.47813196269732      5.65357712333155      0.00063835075260
C   1.22142288457925     -4.97012668293268     -0.00129718634452
C   -3.69316190412301      3.54279732619245     -0.00139355922051
C   -1.22142804110313     -4.97011793159564     -0.00140994817719
C   -4.91452132810043      1.42717581899491     -0.00153192130862
C   3.65678749952045     -4.97295485423912      0.00080007163680
C   -2.47813805026426      5.65357479452875      0.00092287576113
C   -3.69314125872231     -3.54278984697859      0.00136564082345
C   -4.91451200321153     -1.42718062802730      0.00139857359209
C   -0.00000552908399     -5.65043791501335      0.00005899322272
C   -4.89302000425900      2.82518897091939     -0.00040227981744
C   2.47812647313991     -5.65357317188818     -0.00029052915548
C   -3.65679823041642      4.97295655404175     -0.00047374852278
C   -4.89299899901461     -2.82519139505969      0.00006491824035
C   -2.47812801824129     -5.65356579800621     -0.00056571680280
C   -6.13477002348955      0.68054913825639     -0.00086464346868
C   -3.65678835334731     -4.97294365097028      0.00058578382008
C   -6.13476456307132     -0.68055354348201      0.00040575295444
H   5.83528897565761      3.36927626695423      0.00396712770529
H   7.07385965258860      1.22821762089947     -0.00037744837300
H   4.60066374401555      5.51238117445323     -0.00014522814529
H   5.83528386714679     -3.36930568472863     -0.00423551337640
H   -0.00001167146422      6.73853104613662     -0.00389474766392
H   7.07386165167227     -1.22822657074368     -0.00008250934481
H   2.47331421164041      6.74068466339473      0.00017162982210
H   4.60066897122302     -5.51237575717576      0.00039007446835
H   -2.47331820069565      6.74068209160650      0.00047297644710
H   -0.00000978838621     -6.73852780445195      0.00458867820736
H   -5.83530143450167      3.36927132229595      0.00410314985360
H   2.47330840367253     -6.74068500242887      0.00027980126949
H   -4.60067436136587      5.51237839860371      0.00002010017831
H   -5.83527902699321     -3.36928859177951     -0.00451481925734
H   -2.47329986759855     -6.74067870613986     -0.00016951527498
H   -7.07385728692578      1.22822084484047     -0.00046143985387
H   -4.60067330624313     -5.51236229778631      0.00021776644566
H   -7.07385645456741     -1.22822025997701     -0.00017736581114

    units angstrom      # Angstroms are the default
    no_reorient         # Geometry fixed, default
    symmetry c1         # C1 symmetry, default
}

set {
    scf_type DF         # Density fitting, faster than exact integrals
    freeze_core True    # Freeze core electrons
    basis jun-cc-pVDZ   # Jun-cc-pVDZ basis set, recommended for sSAPT0 in https://doi.org/10.1063/1.4867135
}

energy('ssapt0')        # Compute sSAPT0 energy, includes also SAPT0
--------------------------------------------------------------------------

  //              Dimer HF             //
    Molecular point group: c1
  Charge       = 1
  Multiplicity = 1
  Basis Set: JUN-CC-PVDZ
    Blend: JUN-CC-PVDZ
  Basis Set: (JUN-CC-PVDZ AUX)
    Blend: JUN-CC-PVDZ-JKFIT
  @DF-RHF Final Energy: -2359.20017844847189
    Total Energy =                      -2359.2001784484709788
 Dipole X            :         -0.0031499            0.0006313           -0.0025186
 Dipole Y            :         -0.0563980            0.0560211           -0.0003769
 Dipole Z            :         14.2894873          -18.4426655           -4.1531782
 Magnitude           :                                                    4.1531790
  //            Monomer A HF           //
    Molecular point group: c1
  Multiplicity = 1
  Basis Set: JUN-CC-PVDZ
    Blend: JUN-CC-PVDZ
  Basis Set: (JUN-CC-PVDZ AUX)
    Blend: JUN-CC-PVDZ-JKFIT
  @DF-RHF Final Energy:  -303.29848589053842
    Total Energy =                       -303.2984858905384158
  //            Monomer B HF           //
    Molecular point group: c1

    Geometry (in Angstrom), charge = 0, multiplicity = 1:

       Center              X                  Y                   Z               Mass
    ------------   -----------------  -----------------  -----------------  -----------------
      Gh(C)           0.680066520158    -0.008042372515    -4.619875199228    12.000000000000
      Gh(C)          -0.680504479842    -0.006014372515    -4.619491199228    12.000000000000
      Gh(N)          -1.085635479842    -0.005016372515    -3.301167199228    14.003074004430
      Gh(C)           0.000107520158    -0.001740372515    -2.519766199228    12.000000000000
      Gh(C)          -2.477365479842     0.044389627485    -2.833188199228    12.000000000000
      Gh(N)           1.085221520158    -0.005016372515    -3.301167199228    14.003074004430
      Gh(H)           1.385145520158    -0.015870372515    -5.437314199228     1.007825032230
      Gh(H)          -1.385302479842    -0.006204372515    -5.437160199228     1.007825032230
      Gh(H)          -0.000009479842     0.000006627485    -1.438677199228     1.007825032230
      Gh(C)           2.478116520158    -0.021908372515    -2.836069199228    12.000000000000
      Gh(H)           2.490591520158     0.005436627485    -1.745816199228     1.007825032230
      Gh(H)           2.967027520158    -0.935354372515    -3.183245199228     1.007825032230
      Gh(H)           3.001427520158     0.853574627485    -3.227541199228     1.007825032230
      Gh(H)          -2.857359479842     1.066460627485    -2.913147199228     1.007825032230
      Gh(H)          -3.082679479842    -0.625694372515    -3.446252199228     1.007825032230
      Gh(H)          -2.518128479842    -0.282594372515    -1.793240199228     1.007825032230
         C            1.225311895423     0.707538288405     0.502191428055    12.000000000000
         C            1.225323856051    -0.707538895085     0.489860618485    12.000000000000
         C           -0.000006153932     1.414965913575     0.489326994964    12.000000000000
         C            2.456448753949     1.418327886663     0.505078285455    12.000000000000
         C            0.000010827279    -1.414976499150     0.499526552289    12.000000000000
         C           -1.225300948908     0.707545373469     0.504442948378    12.000000000000
         C            2.456437755320    -1.418323304396     0.487615461628    12.000000000000
         C           -0.000001332978     2.836801030766     0.486923444830    12.000000000000
         C            3.681826697470     0.709317955486     0.487964251426    12.000000000000
         C            2.455120048865     2.834223660974     0.487861694465    12.000000000000
         C            3.681821105219    -0.709333839944     0.504036735444    12.000000000000
         C           -1.225313598688    -0.707527516059     0.490933379912    12.000000000000
         C            1.226699581202     3.543469483479     0.504220767375    12.000000000000
         C            0.000004784858    -2.836782139751     0.504374719910    12.000000000000
         C           -2.456436032848     1.418316917770     0.504478344224    12.000000000000
         C            2.455123417779    -2.834230029103     0.503884827077    12.000000000000
         C           -1.226714364589     3.543469063235     0.504324100594    12.000000000000
         C            4.914517295202     1.427172871975     0.494444934456    12.000000000000
         C            3.693150191476     3.542795292030     0.494494734092    12.000000000000
         C           -2.456437600068    -1.418313281354     0.487590423504    12.000000000000
         C            1.226704841943    -3.543474242421     0.488250636625    12.000000000000
         C           -2.455125398508     2.834216662119     0.487868070812    12.000000000000
         C            4.914524380782    -1.427186910459     0.497417677190    12.000000000000
         C            1.221424613699     4.970134064745     0.497556111450    12.000000000000
         C            4.893008229321     2.825187999512     0.495661602814    12.000000000000
         C           -1.226697008489    -3.543470997592     0.488517841035    12.000000000000
         C           -3.681818976526     0.709324966217     0.487976931906    12.000000000000
         C            3.693147101150    -3.542801341905     0.497535567751    12.000000000000
         C           -1.221432251994     4.970128297348     0.497739606822    12.000000000000
         C            6.134770972926     0.680547946591     0.495214709005    12.000000000000
         C            3.656788880610     4.972953243053     0.495403371874    12.000000000000
         C           -2.455126907733    -2.834215093576     0.503640469279    12.000000000000
         C           -3.681819179061    -0.709325703983     0.504154357023    12.000000000000
         C            4.893012617914    -2.825200106147     0.496272754710    12.000000000000
         C           -0.000001073113     5.650447365518     0.496508298116    12.000000000000
         C            6.134775112332    -0.680554854590     0.496480029521    12.000000000000
         C            2.478131482856     5.653576750817     0.496692151524    12.000000000000
         C            1.221422404738    -4.970127055448     0.494756614427    12.000000000000
         C           -3.693162383965     3.542796953677     0.494660241551    12.000000000000
         C           -1.221428520945    -4.970118304111     0.494643852594    12.000000000000
         C           -4.914521807942     1.427175446480     0.494521879463    12.000000000000
         C            3.656787019679    -4.972955226754     0.496853872408    12.000000000000
         C           -2.478138530106     5.653574422014     0.496976676533    12.000000000000
         C           -3.693141738564    -3.542790219494     0.497419441595    12.000000000000
         C           -4.914512483053    -1.427181000542     0.497452374364    12.000000000000
         C           -0.000006008926    -5.650438287528     0.496112793994    12.000000000000
         C           -4.893020484101     2.825188598404     0.495651520954    12.000000000000
         C            2.478125993298    -5.653573544403     0.495763271616    12.000000000000
         C           -3.656798710258     4.972956181527     0.495580052249    12.000000000000
         C           -4.892999478856    -2.825191767575     0.496118719012    12.000000000000
         C           -2.478128498083    -5.653566170521     0.495488083969    12.000000000000
         C           -6.134770503331     0.680548765741     0.495189157303    12.000000000000
         C           -3.656788833189    -4.972944023485     0.496639584592    12.000000000000
         C           -6.134765042913    -0.680553915997     0.496459553726    12.000000000000
         H            5.835288495816     3.369275894439     0.500020928477     1.007825032230
         H            7.073859172747     1.228217248385     0.495676352399     1.007825032230
         H            4.600663264174     5.512380801938     0.495908572626     1.007825032230
         H            5.835283387305    -3.369306057244     0.491818287395     1.007825032230
         H           -0.000012151306     6.738530673622     0.492159053108     1.007825032230
         H            7.073861171831    -1.228226943259     0.495971291427     1.007825032230
         H            2.473313731799     6.740684290880     0.496225430594     1.007825032230
         H            4.600668491381    -5.512376129691     0.496443875240     1.007825032230
         H           -2.473318680537     6.740681719092     0.496526777219     1.007825032230
         H           -0.000010268228    -6.738528176967     0.500642478979     1.007825032230
         H           -5.835301914343     3.369270949781     0.500156950625     1.007825032230
         H            2.473307923831    -6.740685374944     0.496333602041     1.007825032230
         H           -4.600674841208     5.512378026089     0.496073900950     1.007825032230
         H           -5.835279506835    -3.369288964294     0.491538981514     1.007825032230
         H           -2.473300347440    -6.740679078655     0.495884285497     1.007825032230
         H           -7.073857766768     1.228220472326     0.495592360918     1.007825032230
         H           -4.600673786085    -5.512362670301     0.496271567217     1.007825032230
         H           -7.073856934409    -1.228220632492     0.495876434960     1.007825032230

  Charge       = 0
  Multiplicity = 1
  Basis Set: JUN-CC-PVDZ
    Blend: JUN-CC-PVDZ
  Basis Set: (JUN-CC-PVDZ AUX)
    Blend: JUN-CC-PVDZ-JKFIT

    Orbital Energies [Eh]
    ---------------------

    Doubly Occupied:

       1A    -11.260600     2A    -11.260184     3A    -11.260108
       4A    -11.259427     5A    -11.259358     6A    -11.259202
       7A    -11.258968     8A    -11.258919     9A    -11.258858
      10A    -11.258569    11A    -11.258550    12A    -11.258442
      13A    -11.258385    14A    -11.258382    15A    -11.258378
      16A    -11.258349    17A    -11.258332    18A    -11.258319
      19A    -11.258315    20A    -11.258304    21A    -11.258300
      22A    -11.258259    23A    -11.258229    24A    -11.258010
      25A    -11.257255    26A    -11.257221    27A    -11.257160
      28A    -11.257078    29A    -11.257023    30A    -11.256964
      31A    -11.256359    32A    -11.256320    33A    -11.256241
      34A    -11.256186    35A    -11.256133    36A    -11.256105
      37A    -11.252203    38A    -11.252196    39A    -11.252193
      40A    -11.252185    41A    -11.252154    42A    -11.252150
      43A    -11.251293    44A    -11.251284    45A    -11.251277
      46A    -11.251264    47A    -11.251258    48A    -11.251255
      49A    -11.250764    50A    -11.250757    51A    -11.250754
      52A    -11.250746    53A    -11.250716    54A    -11.250711
      55A     -1.243862    56A     -1.219644    57A     -1.219604
      58A     -1.189374    59A     -1.189350    60A     -1.180761
      61A     -1.157397    62A     -1.148809    63A     -1.135321
      64A     -1.135278    65A     -1.113034    66A     -1.113027
      67A     -1.082247    68A     -1.082232    69A     -1.078421
      70A     -1.065831    71A     -1.065819    72A     -1.039224
      73A     -1.024071    74A     -1.021582    75A     -1.021507
      76A     -1.017568    77A     -1.012653    78A     -0.986845
      79A     -0.986771    80A     -0.961726    81A     -0.961663
      82A     -0.894113    83A     -0.894100    84A     -0.887728
      85A     -0.885963    86A     -0.885932    87A     -0.881194
      88A     -0.881153    89A     -0.861732    90A     -0.837268
      91A     -0.818027    92A     -0.816408    93A     -0.811943
      94A     -0.811936    95A     -0.794529    96A     -0.794514
      97A     -0.746418    98A     -0.744664    99A     -0.733226
     100A     -0.733202   101A     -0.732011   102A     -0.731995
     103A     -0.716317   104A     -0.698819   105A     -0.698766
     106A     -0.693425   107A     -0.693356   108A     -0.661067
     109A     -0.652916   110A     -0.650948   111A     -0.650101
     112A     -0.650083   113A     -0.639204   114A     -0.639166
     115A     -0.629528   116A     -0.627327   117A     -0.627321
     118A     -0.606404   119A     -0.605685   120A     -0.601456
     121A     -0.599586   122A     -0.599490   123A     -0.593438
     124A     -0.591023   125A     -0.590970   126A     -0.585140
     127A     -0.576439   128A     -0.576306   129A     -0.567179
     130A     -0.567146   131A     -0.565762   132A     -0.565756
     133A     -0.558522   134A     -0.554693   135A     -0.554664
     136A     -0.538433   137A     -0.538426   138A     -0.538174
     139A     -0.538124   140A     -0.529540   141A     -0.528113
     142A     -0.522717   143A     -0.522661   144A     -0.500340
     145A     -0.495557   146A     -0.493064   147A     -0.487757
     148A     -0.484872   149A     -0.481570   150A     -0.481559
     151A     -0.470281   152A     -0.470235   153A     -0.450791
     154A     -0.450735   155A     -0.438979   156A     -0.438975
     157A     -0.404649   158A     -0.404617   159A     -0.403267
     160A     -0.375330   161A     -0.375322   162A     -0.349029
     163A     -0.337486   164A     -0.336436   165A     -0.336421
     166A     -0.310976   167A     -0.298030   168A     -0.284220
     169A     -0.284167   170A     -0.224787   171A     -0.224731

  @DF-RHF Final Energy: -2055.89561198831598

   => Energetics <=

    Nuclear Repulsion Energy =           6452.5568002797781446
    One-Electron Energy =              -15636.5327858336222562
    Two-Electron Energy =                7128.0803735655272249
    Total Energy =                      -2055.8956119883159772
 Dipole X            :         -0.0004697           -0.0000085           -0.0004782
 Dipole Y            :          0.0004514            0.0000167            0.0004681
 Dipole Z            :       -320.5902137          320.5913498            0.0011362
 Magnitude           :                                                    0.0013186

    SAPT Results
  --------------------------------------------------------------------------------------------------------
    Electrostatics                -23.92813287 [mEh]     -15.01513006 [kcal/mol]     -62.82330418 [kJ/mol]
      Elst10,r                    -23.92813287 [mEh]     -15.01513006 [kcal/mol]     -62.82330418 [kJ/mol]

    Exchange                       41.63563280 [mEh]      26.12675403 [kcal/mol]     109.31433886 [kJ/mol]
      Exch10                       41.63563280 [mEh]      26.12675403 [kcal/mol]     109.31433886 [kJ/mol]
      Exch10(S^2)                  41.15764779 [mEh]      25.82681390 [kcal/mol]     108.05938937 [kJ/mol]

    Induction                     -23.78806955 [mEh]     -14.92723901 [kcal/mol]     -62.45556801 [kJ/mol]
      Ind20,r                     -28.31736639 [mEh]     -17.76941568 [kcal/mol]     -74.34723520 [kJ/mol]
      Exch-Ind20,r                 10.90931146 [mEh]       6.84569629 [kcal/mol]      28.64239329 [kJ/mol]
      delta HF,r (2)               -6.38001463 [mEh]      -4.00351962 [kcal/mol]     -16.75072610 [kJ/mol]

    Dispersion                    -35.01589194 [mEh]     -21.97280393 [kcal/mol]     -91.93421163 [kJ/mol]
      Disp20                      -38.42677700 [mEh]     -24.11316661 [kcal/mol]    -100.88948911 [kJ/mol]
      Exch-Disp20                   3.41088506 [mEh]       2.14036269 [kcal/mol]       8.95527748 [kJ/mol]
      Disp20 (SS)                 -19.21338850 [mEh]     -12.05658331 [kcal/mol]     -50.44474456 [kJ/mol]
      Disp20 (OS)                 -19.21338850 [mEh]     -12.05658331 [kcal/mol]     -50.44474456 [kJ/mol]
      Exch-Disp20 (SS)              2.01171700 [mEh]       1.26237147 [kcal/mol]       5.28176225 [kJ/mol]
      Exch-Disp20 (OS)              1.39916806 [mEh]       0.87799121 [kcal/mol]       3.67351523 [kJ/mol]

  Total HF                         -6.08056962 [mEh]      -3.81561504 [kcal/mol]     -15.96453333 [kJ/mol]
  Total SAPT0                     -41.09646156 [mEh]     -25.78841897 [kcal/mol]    -107.89874496 [kJ/mol]

  Special recipe for scaled SAPT0 (see Manual):
    Electrostatics sSAPT0         -23.92813287 [mEh]     -15.01513006 [kcal/mol]     -62.82330418 [kJ/mol]
    Exchange sSAPT0                41.63563280 [mEh]      26.12675403 [kcal/mol]     109.31433886 [kJ/mol]
    Induction sSAPT0              -23.40355192 [mEh]     -14.68595055 [kcal/mol]     -61.44601711 [kJ/mol]
    Dispersion sSAPT0             -34.89566938 [mEh]     -21.89736313 [kcal/mol]     -91.61856732 [kJ/mol]
  Total sSAPT0                    -40.59172137 [mEh]     -25.47168971 [kcal/mol]    -106.57354976 [kJ/mol]
  --------------------------------------------------------------------------------------------------------

*** Psi4 exiting successfully. Buy a developer a beer!
