                               Psi4 1.9 release

  ==> Input File <==

--------------------------------------------------------------------------
memory 32 GB # how much memory is available ! Depends on the nodes/cores !

molecule dimer {
# monomer A
-1 1    # Charge and multiplicity
B -1.977592e-04  2.742729e-04 -4.799966
F  1.123153e-16  1.430594e-17 -3.387181
F  1.147860e+00  6.757812e-01 -5.271107
F  1.191806e-02 -1.332011e+00 -5.270905
F -1.159666e+00  6.560735e-01 -5.270826
--
# monomer B
0 1     # Charge and multiplicity
C   1.22531237526482      0.70753866091955      0.00613762728373
C   1.22532433589282     -0.70753852257020     -0.00619318228664
C   -0.00000567409046      1.41496628609039     -0.00672680580738
C   2.45644923379077      1.41832825917820      0.00902448468363
C   0.00001130712078     -1.41497612663474      0.00347275151708
C   -1.22530046906674      0.70754574598412      0.00838914760619
C   2.45643823516184     -1.41832293188077     -0.00843833914343
C   -0.00000085313587      2.83680140328112     -0.00913035594137
C   3.68182717731192      0.70931832800114     -0.00808954934571
C   2.45512052870677      2.83422403348893     -0.00819210630633
C   3.68182158506039     -0.70933346742900      0.00798293467272
C   -1.22531311884624     -0.70752714354401     -0.00512042085974
C   1.22670006104402      3.54346985599427      0.00816696660346
C   0.00000526469929     -2.83678176723568      0.00832091913869
C   -2.45643555300670      1.41831729028492      0.00842454345199
C   2.45512389762097     -2.83422965658853      0.00783102630520
C   -1.22671388474763      3.54346943575023      0.00827029982280
C   4.91451777504333      1.42717324448953     -0.00160886631602
C   3.69315067131765      3.54279566454522     -0.00155906667985
C   -2.45643712022637     -1.41831290883911     -0.00846337726810
C   1.22670532178455     -3.54347386990643     -0.00780316414624
C   -2.45512491866593      2.83421703463423     -0.00818572995999
C   4.91452486062398     -1.42718653794377      0.00136387641845
C   1.22142509354026      4.97013443726031      0.00150231067809
C   4.89300870916237      2.82518837202648     -0.00039219795739
C   -1.22669652864725     -3.54347062507680     -0.00753595973677
C   -3.68181849668397      0.70932533873199     -0.00807686886569
C   3.69314758099218     -3.54280096939050      0.00148176697923
C   -1.22143177215231      4.97012866986289      0.00168580605083
C   6.13477145276790      0.68054831910577     -0.00083909176631
C   3.65678936045204      4.97295361556775     -0.00065042889723
C   -2.45512642789169     -2.83421472106065      0.00758666850712
C   -3.68181869921921     -0.70932533146830      0.00810055625144
C   4.89301309775526     -2.82519973363176      0.00021895393805
C   -0.00000059327114      5.65044773803267      0.00045449734393
C   6.13477559217374     -0.68055448207492      0.00042622874941
C   2.47813196269732      5.65357712333155      0.00063835075260
C   1.22142288457925     -4.97012668293268     -0.00129718634452
C   -3.69316190412301      3.54279732619245     -0.00139355922051
C   -1.22142804110313     -4.97011793159564     -0.00140994817719
C   -4.91452132810043      1.42717581899491     -0.00153192130862
C   3.65678749952045     -4.97295485423912      0.00080007163680
C   -2.47813805026426      5.65357479452875      0.00092287576113
C   -3.69314125872231     -3.54278984697859      0.00136564082345
C   -4.91451200321153     -1.42718062802730      0.00139857359209
C   -0.00000552908399     -5.65043791501335      0.00005899322272
C   -4.89302000425900      2.82518897091939     -0.00040227981744
C   2.47812647313991     -5.65357317188818     -0.00029052915548
C   -3.65679823041642      4.97295655404175     -0.00047374852278
C   -4.89299899901461     -2.82519139505969      0.00006491824035
C   -2.47812801824129     -5.65356579800621     -0.00056571680280
C   -6.13477002348955      0.68054913825639     -0.00086464346868
C   -3.65678835334731     -4.97294365097028      0.00058578382008
C   -6.13476456307132     -0.68055354348201      0.00040575295444
H   5.83528897565761      3.36927626695423      0.00396712770529
H   7.07385965258860      1.22821762089947     -0.00037744837300
H   4.60066374401555      5.51238117445323     -0.00014522814529
H   5.83528386714679     -3.36930568472863     -0.00423551337640
H   -0.00001167146422      6.73853104613662     -0.00389474766392
H   7.07386165167227     -1.22822657074368     -0.00008250934481
H   2.47331421164041      6.74068466339473      0.00017162982210
H   4.60066897122302     -5.51237575717576      0.00039007446835
H   -2.47331820069565      6.74068209160650      0.00047297644710
H   -0.00000978838621     -6.73852780445195      0.00458867820736
H   -5.83530143450167      3.36927132229595      0.00410314985360
H   2.47330840367253     -6.74068500242887      0.00027980126949
H   -4.60067436136587      5.51237839860371      0.00002010017831
H   -5.83527902699321     -3.36928859177951     -0.00451481925734
H   -2.47329986759855     -6.74067870613986     -0.00016951527498
H   -7.07385728692578      1.22822084484047     -0.00046143985387
H   -4.60067330624313     -5.51236229778631      0.00021776644566
H   -7.07385645456741     -1.22822025997701     -0.00017736581114

    units angstrom      # Angstroms are the default
    no_reorient         # Geometry fixed, default
    symmetry c1         # C1 symmetry, default
}

set {
    scf_type DF         # Density fitting, faster than exact integrals
    freeze_core True    # Freeze core electrons
    basis jun-cc-pVDZ   # Jun-cc-pVDZ basis set, recommended for sSAPT0 in https://doi.org/10.1063/1.4867135
}

energy('ssapt0')        # Compute sSAPT0 energy, includes also SAPT0
--------------------------------------------------------------------------

  //              Dimer HF             //
    Molecular point group: c1
  Charge       = -1
  Multiplicity = 1
  Basis Set: JUN-CC-PVDZ
    Blend: JUN-CC-PVDZ
  Basis Set: (JUN-CC-PVDZ AUX)
    Blend: JUN-CC-PVDZ-JKFIT
  @DF-RHF Final Energy: -2478.66079398138345
    Total Energy =                      -2478.6607939813839039
 Dipole X            :         -0.0004441            0.0000481           -0.0003961
 Dipole Y            :          0.0009163           -0.0001453            0.0007710
 Dipole Z            :        -22.5336339           29.4257565            6.8921226
 Magnitude           :                                                    6.8921226
  //            Monomer A HF           //
    Molecular point group: c1
  Multiplicity = 1
  Basis Set: JUN-CC-PVDZ
    Blend: JUN-CC-PVDZ
  Basis Set: (JUN-CC-PVDZ AUX)
    Blend: JUN-CC-PVDZ-JKFIT
  @DF-RHF Final Energy:  -422.77208129468681
    Total Energy =                       -422.7720812946868136
  //            Monomer B HF           //
    Molecular point group: c1

    Geometry (in Angstrom), charge = 0, multiplicity = 1:

       Center              X                  Y                   Z               Mass
    ------------   -----------------  -----------------  -----------------  -----------------
      Gh(B)          -0.000198161052     0.000273808717    -4.245469382997    11.009305360000
      Gh(F)          -0.000000401852    -0.000000464183    -2.832684382997    18.998403162730
      Gh(F)           1.147859598148     0.675780735817    -4.716610382997    18.998403162730
      Gh(F)           0.011917658148    -1.332011464183    -4.716408382997    18.998403162730
      Gh(F)          -1.159666401852     0.656073035817    -4.716329382997    18.998403162730
         C            1.225311973413     0.707538196736     0.560634244287    12.000000000000
         C            1.225323934041    -0.707538986754     0.548303434717    12.000000000000
         C           -0.000006075942     1.414965821907     0.547769811196    12.000000000000
         C            2.456448831939     1.418327794995     0.563521101687    12.000000000000
         C            0.000010905269    -1.414976590818     0.557969368520    12.000000000000
         C           -1.225300870919     0.707545281801     0.562885764610    12.000000000000
         C            2.456437833310    -1.418323396064     0.546058277860    12.000000000000
         C           -0.000001254988     2.836800939098     0.545366261062    12.000000000000
         C            3.681826775460     0.709317863818     0.546407067658    12.000000000000
         C            2.455120126855     2.834223569306     0.546304510697    12.000000000000
         C            3.681821183209    -0.709333931612     0.562479551676    12.000000000000
         C           -1.225313520698    -0.707527607727     0.549376196144    12.000000000000
         C            1.226699659192     3.543469391811     0.562663583607    12.000000000000
         C            0.000004862847    -2.836782231419     0.562817536142    12.000000000000
         C           -2.456435954859     1.418316826102     0.562921160455    12.000000000000
         C            2.455123495769    -2.834230120772     0.562327643309    12.000000000000
         C           -1.226714286599     3.543468971567     0.562766916826    12.000000000000
         C            4.914517373191     1.427172780306     0.552887750687    12.000000000000
         C            3.693150269466     3.542795200362     0.552937550324    12.000000000000
         C           -2.456437522078    -1.418313373022     0.546033239735    12.000000000000
         C            1.226704919933    -3.543474334090     0.546693452857    12.000000000000
         C           -2.455125320518     2.834216570451     0.546310887043    12.000000000000
         C            4.914524458772    -1.427187002127     0.555860493422    12.000000000000
         C            1.221424691688     4.970133973077     0.555998927681    12.000000000000
         C            4.893008307311     2.825187907843     0.554104419046    12.000000000000
         C           -1.226696930499    -3.543471089260     0.546960657267    12.000000000000
         C           -3.681818898536     0.709324874549     0.546419748138    12.000000000000
         C            3.693147179140    -3.542801433574     0.555978383983    12.000000000000
         C           -1.221432174004     4.970128205680     0.556182423054    12.000000000000
         C            6.134771050916     0.680547854922     0.553657525237    12.000000000000
         C            3.656788958600     4.972953151384     0.553846188106    12.000000000000
         C           -2.455126829744    -2.834215185244     0.562083285511    12.000000000000
         C           -3.681819101071    -0.709325795652     0.562597173255    12.000000000000
         C            4.893012695903    -2.825200197815     0.554715570941    12.000000000000
         C           -0.000000995123     5.650447273849     0.554951114347    12.000000000000
         C            6.134775190322    -0.680554946258     0.554922845753    12.000000000000
         C            2.478131560845     5.653576659148     0.555134967756    12.000000000000
         C            1.221422482727    -4.970127147116     0.553199430659    12.000000000000
         C           -3.693162305975     3.542796862009     0.553103057783    12.000000000000
         C           -1.221428442955    -4.970118395779     0.553086668826    12.000000000000
         C           -4.914521729952     1.427175354812     0.552964695695    12.000000000000
         C            3.656787097669    -4.972955318422     0.555296688640    12.000000000000
         C           -2.478138452116     5.653574330345     0.555419492765    12.000000000000
         C           -3.693141660574    -3.542790311162     0.555862257827    12.000000000000
         C           -4.914512405063    -1.427181092211     0.555895190595    12.000000000000
         C           -0.000005930936    -5.650438379197     0.554555610226    12.000000000000
         C           -4.893020406111     2.825188506736     0.554094337186    12.000000000000
         C            2.478126071288    -5.653573636072     0.554206087848    12.000000000000
         C           -3.656798632268     4.972956089858     0.554022868481    12.000000000000
         C           -4.892999400866    -2.825191859243     0.554561535244    12.000000000000
         C           -2.478128420093    -5.653566262190     0.553930900201    12.000000000000
         C           -6.134770425341     0.680548674073     0.553631973535    12.000000000000
         C           -3.656788755199    -4.972944115154     0.555082400823    12.000000000000
         C           -6.134764964923    -0.680554007665     0.554902369958    12.000000000000
         H            5.835288573806     3.369275802771     0.558463744709     1.007825032230
         H            7.073859250737     1.228217156716     0.554119168630     1.007825032230
         H            4.600663342164     5.512380710270     0.554351388858     1.007825032230
         H            5.835283465295    -3.369306148912     0.550261103627     1.007825032230
         H           -0.000012073316     6.738530581953     0.550601869339     1.007825032230
         H            7.073861249820    -1.228227034927     0.554414107659     1.007825032230
         H            2.473313809789     6.740684199211     0.554668246826     1.007825032230
         H            4.600668569371    -5.512376221359     0.554886691472     1.007825032230
         H           -2.473318602548     6.740681627423     0.554969593451     1.007825032230
         H           -0.000010190238    -6.738528268635     0.559085295211     1.007825032230
         H           -5.835301836354     3.369270858113     0.558599766857     1.007825032230
         H            2.473308001821    -6.740685466612     0.554776418273     1.007825032230
         H           -4.600674763218     5.512377934420     0.554516717182     1.007825032230
         H           -5.835279428845    -3.369289055963     0.549981797746     1.007825032230
         H           -2.473300269450    -6.740679170323     0.554327101728     1.007825032230
         H           -7.073857688778     1.228220380657     0.554035177150     1.007825032230
         H           -4.600673708095    -5.512362761970     0.554714383449     1.007825032230
         H           -7.073856856419    -1.228220724160     0.554319251192     1.007825032230

  Charge       = 0
  Multiplicity = 1
  Basis Set: JUN-CC-PVDZ
    Blend: JUN-CC-PVDZ
  Basis Set: (JUN-CC-PVDZ AUX)
    Blend: JUN-CC-PVDZ-JKFIT

    Orbital Energies [Eh]
    ---------------------

    Doubly Occupied:

       1A    -11.260681     2A    -11.260231     3A    -11.260228
       4A    -11.259477     5A    -11.259476     6A    -11.259287
       7A    -11.259060     8A    -11.258988     9A    -11.258987
      10A    -11.258680    11A    -11.258677    12A    -11.258585
      13A    -11.258528    14A    -11.258525    15A    -11.258522
      16A    -11.258489    17A    -11.258483    18A    -11.258467
      19A    -11.258455    20A    -11.258450    21A    -11.258444
      22A    -11.258368    23A    -11.258364    24A    -11.258104
      25A    -11.257368    26A    -11.257306    27A    -11.257305
      28A    -11.257170    29A    -11.257170    30A    -11.257085
      31A    -11.256460    32A    -11.256389    33A    -11.256389
      34A    -11.256280    35A    -11.256279    36A    -11.256232
      37A    -11.252339    38A    -11.252339    39A    -11.252337
      40A    -11.252336    41A    -11.252334    42A    -11.252332
      43A    -11.251453    44A    -11.251451    45A    -11.251449
      46A    -11.251443    47A    -11.251442    48A    -11.251438
      49A    -11.250901    50A    -11.250900    51A    -11.250898
      52A    -11.250896    53A    -11.250895    54A    -11.250893
      55A     -1.244124    56A     -1.219892    57A     -1.219892
      58A     -1.189620    59A     -1.189613    60A     -1.180997
      61A     -1.157638    62A     -1.149056    63A     -1.135555
      64A     -1.135549    65A     -1.113268    66A     -1.113264
      67A     -1.082505    68A     -1.082498    69A     -1.078664
      70A     -1.066054    71A     -1.066050    72A     -1.039480
      73A     -1.024353    74A     -1.021828    75A     -1.021785
      76A     -1.017805    77A     -1.012866    78A     -0.987099
      79A     -0.987053    80A     -0.961950    81A     -0.961901
      82A     -0.894366    83A     -0.894339    84A     -0.888000
      85A     -0.886251    86A     -0.886193    87A     -0.881475
      88A     -0.881427    89A     -0.861974    90A     -0.837481
      91A     -0.818289    92A     -0.816686    93A     -0.812207
      94A     -0.812198    95A     -0.794762    96A     -0.794752
      97A     -0.746702    98A     -0.744929    99A     -0.733480
     100A     -0.733471   101A     -0.732258   102A     -0.732234
     103A     -0.716566   104A     -0.699050   105A     -0.699040
     106A     -0.693658   107A     -0.693643   108A     -0.661305
     109A     -0.653164   110A     -0.651228   111A     -0.650324
     112A     -0.650318   113A     -0.639437   114A     -0.639435
     115A     -0.629785   116A     -0.627595   117A     -0.627579
     118A     -0.606472   119A     -0.605874   120A     -0.601737
     121A     -0.599815   122A     -0.599784   123A     -0.593718
     124A     -0.591284   125A     -0.591274   126A     -0.585348
     127A     -0.576401   128A     -0.576395   129A     -0.567395
     130A     -0.567381   131A     -0.566019   132A     -0.565999
     133A     -0.558789   134A     -0.554914   135A     -0.554908
     136A     -0.538667   137A     -0.538665   138A     -0.538222
     139A     -0.538216   140A     -0.529794   141A     -0.528209
     142A     -0.522945   143A     -0.522938   144A     -0.500579
     145A     -0.495652   146A     -0.493310   147A     -0.487885
     148A     -0.485152   149A     -0.481832   150A     -0.481824
     151A     -0.470392   152A     -0.470374   153A     -0.451090
     154A     -0.451012   155A     -0.439127   156A     -0.439118
     157A     -0.404785   158A     -0.404762   159A     -0.403440
     160A     -0.375475   161A     -0.375472   162A     -0.349177
     163A     -0.337631   164A     -0.336620   165A     -0.336563
     166A     -0.311145   167A     -0.298159   168A     -0.284392
     169A     -0.284339   170A     -0.224973   171A     -0.224907

  @DF-RHF Final Energy: -2055.89285876527265

   => Energetics <=

    Nuclear Repulsion Energy =           6452.5568002797772351
    One-Electron Energy =              -15636.4605219845361717
    Two-Electron Energy =                7128.0108629394862874
    Total Energy =                      -2055.8928587652726492
 Dipole X            :          0.0000315            0.0000419            0.0000734
 Dipole Y            :          0.0000448           -0.0000426            0.0000022
 Dipole Z            :       -358.3599177          358.3621434            0.0022256
 Magnitude           :                                                    0.0022268

    SAPT Results
  --------------------------------------------------------------------------------------------------------
    Electrostatics                 11.18399089 [mEh]       7.01806024 [kcal/mol]      29.36356404 [kJ/mol]
      Elst10,r                     11.18399089 [mEh]       7.01806024 [kcal/mol]      29.36356404 [kJ/mol]

    Exchange                        0.92738194 [mEh]       0.58194095 [kcal/mol]       2.43484095 [kJ/mol]
      Exch10                        0.92738194 [mEh]       0.58194095 [kcal/mol]       2.43484095 [kJ/mol]
      Exch10(S^2)                   0.92750732 [mEh]       0.58201963 [kcal/mol]       2.43517014 [kJ/mol]

    Induction                      -7.96529426 [mEh]      -4.99829761 [kcal/mol]     -20.91287719 [kJ/mol]
      Ind20,r                      -8.14380317 [mEh]      -5.11031364 [kcal/mol]     -21.38155229 [kJ/mol]
      Exch-Ind20,r                  0.15586427 [mEh]       0.09780631 [kcal/mol]       0.40922159 [kJ/mol]
      delta HF,r (2)                0.02264465 [mEh]       0.01420973 [kcal/mol]       0.05945351 [kJ/mol]

    Dispersion                     -3.30277417 [mEh]      -2.07252208 [kcal/mol]      -8.67143240 [kJ/mol]
      Disp20                       -3.46527053 [mEh]      -2.17449009 [kcal/mol]      -9.09806653 [kJ/mol]
      Exch-Disp20                   0.16249636 [mEh]       0.10196801 [kcal/mol]       0.42663414 [kJ/mol]
      Disp20 (SS)                  -1.73263527 [mEh]      -1.08724504 [kcal/mol]      -4.54903327 [kJ/mol]
      Disp20 (OS)                  -1.73263527 [mEh]      -1.08724504 [kcal/mol]      -4.54903327 [kJ/mol]
      Exch-Disp20 (SS)              0.10037036 [mEh]       0.06298335 [kcal/mol]       0.26352235 [kJ/mol]
      Exch-Disp20 (OS)              0.06212600 [mEh]       0.03898465 [kcal/mol]       0.16311179 [kJ/mol]

  Total HF                          4.14607858 [mEh]       2.60170359 [kcal/mol]      10.88552780 [kJ/mol]
  Total SAPT0                       0.84330440 [mEh]       0.52918150 [kcal/mol]       2.21409541 [kJ/mol]

  Special recipe for scaled SAPT0 (see Manual):
    Electrostatics sSAPT0          11.18399089 [mEh]       7.01806024 [kcal/mol]      29.36356404 [kJ/mol]
    Exchange sSAPT0                 0.92738194 [mEh]       0.58194095 [kcal/mol]       2.43484095 [kJ/mol]
    Induction sSAPT0               -7.96535746 [mEh]      -4.99833727 [kcal/mol]     -20.91304312 [kJ/mol]
    Dispersion sSAPT0              -3.30284006 [mEh]      -2.07256343 [kcal/mol]      -8.67160539 [kJ/mol]
  Total sSAPT0                      0.84317531 [mEh]       0.52910049 [kcal/mol]       2.21375647 [kJ/mol]
  --------------------------------------------------------------------------------------------------------

*** Psi4 exiting successfully. Buy a developer a beer!
