                               Psi4 1.9 release

  ==> Input File <==

--------------------------------------------------------------------------
memory 32 GB # how much memory is available ! Depends on the nodes/cores !

molecule dimer {
# monomer A
+1 1    # Charge and multiplicity
C  0.680067 -0.008042 -8.815929
C -0.680504 -0.006014 -8.815545
N -1.085635 -0.005016 -7.497221
C  0.000108 -0.001740 -6.715820
C -2.477365  0.044390 -7.029242
N  1.085222 -0.005016 -7.497221
H  1.385146 -0.015870 -9.633368
H -1.385302 -0.006204 -9.633214
H -0.000009  0.000007 -5.634731
C  2.478117 -0.021908 -7.032123
H  2.490592  0.005437 -5.941870
H  2.967028 -0.935354 -7.379299
H  3.001428  0.853575 -7.423595
H -2.857359  1.066461 -7.109201
H -3.082679 -0.625694 -7.642306
H -2.518128 -0.282594 -5.989294
--
# monomer B
0 1     # Charge and multiplicity
C   1.22531237526482      0.70753866091955      0.00613762728373
C   1.22532433589282     -0.70753852257020     -0.00619318228664
C   -0.00000567409046      1.41496628609039     -0.00672680580738
C   2.45644923379077      1.41832825917820      0.00902448468363
C   0.00001130712078     -1.41497612663474      0.00347275151708
C   -1.22530046906674      0.70754574598412      0.00838914760619
C   2.45643823516184     -1.41832293188077     -0.00843833914343
C   -0.00000085313587      2.83680140328112     -0.00913035594137
C   3.68182717731192      0.70931832800114     -0.00808954934571
C   2.45512052870677      2.83422403348893     -0.00819210630633
C   3.68182158506039     -0.70933346742900      0.00798293467272
C   -1.22531311884624     -0.70752714354401     -0.00512042085974
C   1.22670006104402      3.54346985599427      0.00816696660346
C   0.00000526469929     -2.83678176723568      0.00832091913869
C   -2.45643555300670      1.41831729028492      0.00842454345199
C   2.45512389762097     -2.83422965658853      0.00783102630520
C   -1.22671388474763      3.54346943575023      0.00827029982280
C   4.91451777504333      1.42717324448953     -0.00160886631602
C   3.69315067131765      3.54279566454522     -0.00155906667985
C   -2.45643712022637     -1.41831290883911     -0.00846337726810
C   1.22670532178455     -3.54347386990643     -0.00780316414624
C   -2.45512491866593      2.83421703463423     -0.00818572995999
C   4.91452486062398     -1.42718653794377      0.00136387641845
C   1.22142509354026      4.97013443726031      0.00150231067809
C   4.89300870916237      2.82518837202648     -0.00039219795739
C   -1.22669652864725     -3.54347062507680     -0.00753595973677
C   -3.68181849668397      0.70932533873199     -0.00807686886569
C   3.69314758099218     -3.54280096939050      0.00148176697923
C   -1.22143177215231      4.97012866986289      0.00168580605083
C   6.13477145276790      0.68054831910577     -0.00083909176631
C   3.65678936045204      4.97295361556775     -0.00065042889723
C   -2.45512642789169     -2.83421472106065      0.00758666850712
C   -3.68181869921921     -0.70932533146830      0.00810055625144
C   4.89301309775526     -2.82519973363176      0.00021895393805
C   -0.00000059327114      5.65044773803267      0.00045449734393
C   6.13477559217374     -0.68055448207492      0.00042622874941
C   2.47813196269732      5.65357712333155      0.00063835075260
C   1.22142288457925     -4.97012668293268     -0.00129718634452
C   -3.69316190412301      3.54279732619245     -0.00139355922051
C   -1.22142804110313     -4.97011793159564     -0.00140994817719
C   -4.91452132810043      1.42717581899491     -0.00153192130862
C   3.65678749952045     -4.97295485423912      0.00080007163680
C   -2.47813805026426      5.65357479452875      0.00092287576113
C   -3.69314125872231     -3.54278984697859      0.00136564082345
C   -4.91451200321153     -1.42718062802730      0.00139857359209
C   -0.00000552908399     -5.65043791501335      0.00005899322272
C   -4.89302000425900      2.82518897091939     -0.00040227981744
C   2.47812647313991     -5.65357317188818     -0.00029052915548
C   -3.65679823041642      4.97295655404175     -0.00047374852278
C   -4.89299899901461     -2.82519139505969      0.00006491824035
C   -2.47812801824129     -5.65356579800621     -0.00056571680280
C   -6.13477002348955      0.68054913825639     -0.00086464346868
C   -3.65678835334731     -4.97294365097028      0.00058578382008
C   -6.13476456307132     -0.68055354348201      0.00040575295444
H   5.83528897565761      3.36927626695423      0.00396712770529
H   7.07385965258860      1.22821762089947     -0.00037744837300
H   4.60066374401555      5.51238117445323     -0.00014522814529
H   5.83528386714679     -3.36930568472863     -0.00423551337640
H   -0.00001167146422      6.73853104613662     -0.00389474766392
H   7.07386165167227     -1.22822657074368     -0.00008250934481
H   2.47331421164041      6.74068466339473      0.00017162982210
H   4.60066897122302     -5.51237575717576      0.00039007446835
H   -2.47331820069565      6.74068209160650      0.00047297644710
H   -0.00000978838621     -6.73852780445195      0.00458867820736
H   -5.83530143450167      3.36927132229595      0.00410314985360
H   2.47330840367253     -6.74068500242887      0.00027980126949
H   -4.60067436136587      5.51237839860371      0.00002010017831
H   -5.83527902699321     -3.36928859177951     -0.00451481925734
H   -2.47329986759855     -6.74067870613986     -0.00016951527498
H   -7.07385728692578      1.22822084484047     -0.00046143985387
H   -4.60067330624313     -5.51236229778631      0.00021776644566
H   -7.07385645456741     -1.22822025997701     -0.00017736581114

    units angstrom      # Angstroms are the default
    no_reorient         # Geometry fixed, default
    symmetry c1         # C1 symmetry, default
}

set {
    scf_type DF         # Density fitting, faster than exact integrals
    freeze_core True    # Freeze core electrons
    basis jun-cc-pVDZ   # Jun-cc-pVDZ basis set, recommended for sSAPT0 in https://doi.org/10.1063/1.4867135
}

energy('ssapt0')        # Compute sSAPT0 energy, includes also SAPT0
--------------------------------------------------------------------------

  //              Dimer HF             //
    Molecular point group: c1
  Charge       = 1
  Multiplicity = 1
  Basis Set: JUN-CC-PVDZ
    Blend: JUN-CC-PVDZ
  Basis Set: (JUN-CC-PVDZ AUX)
    Blend: JUN-CC-PVDZ-JKFIT
  @DF-RHF Final Energy: -2359.19807030042284
    Total Energy =                      -2359.1980703004228417
 Dipole X            :         -0.0011741            0.0006313           -0.0005428
 Dipole Y            :         -0.0480156            0.0560211            0.0080055
 Dipole Z            :         26.4630959          -37.7295271          -11.2664311
 Magnitude           :                                                   11.2664340
  //            Monomer A HF           //
    Molecular point group: c1
  Multiplicity = 1
  Basis Set: JUN-CC-PVDZ
    Blend: JUN-CC-PVDZ
  Basis Set: (JUN-CC-PVDZ AUX)
    Blend: JUN-CC-PVDZ-JKFIT
  @DF-RHF Final Energy:  -303.29721809397563
    Total Energy =                       -303.2972180939756299
  //            Monomer B HF           //
    Molecular point group: c1

    Geometry (in Angstrom), charge = 0, multiplicity = 1:

       Center              X                  Y                   Z               Mass
    ------------   -----------------  -----------------  -----------------  -----------------
      Gh(C)           0.680066520158    -0.008042372515    -7.849257902023    12.000000000000
      Gh(C)          -0.680504479842    -0.006014372515    -7.848873902023    12.000000000000
      Gh(N)          -1.085635479842    -0.005016372515    -6.530549902023    14.003074004430
      Gh(C)           0.000107520158    -0.001740372515    -5.749148902023    12.000000000000
      Gh(C)          -2.477365479842     0.044389627485    -6.062570902023    12.000000000000
      Gh(N)           1.085221520158    -0.005016372515    -6.530549902023    14.003074004430
      Gh(H)           1.385145520158    -0.015870372515    -8.666696902023     1.007825032230
      Gh(H)          -1.385302479842    -0.006204372515    -8.666542902023     1.007825032230
      Gh(H)          -0.000009479842     0.000006627485    -4.668059902023     1.007825032230
      Gh(C)           2.478116520158    -0.021908372515    -6.065451902023    12.000000000000
      Gh(H)           2.490591520158     0.005436627485    -4.975198902023     1.007825032230
      Gh(H)           2.967027520158    -0.935354372515    -6.412627902023     1.007825032230
      Gh(H)           3.001427520158     0.853574627485    -6.456923902023     1.007825032230
      Gh(H)          -2.857359479842     1.066460627485    -6.142529902023     1.007825032230
      Gh(H)          -3.082679479842    -0.625694372515    -6.675634902023     1.007825032230
      Gh(H)          -2.518128479842    -0.282594372515    -5.022622902023     1.007825032230
         C            1.225311895423     0.707538288405     0.972808725261    12.000000000000
         C            1.225323856051    -0.707538895085     0.960477915690    12.000000000000
         C           -0.000006153932     1.414965913575     0.959944292170    12.000000000000
         C            2.456448753949     1.418327886663     0.975695582661    12.000000000000
         C            0.000010827279    -1.414976499150     0.970143849494    12.000000000000
         C           -1.225300948908     0.707545373469     0.975060245583    12.000000000000
         C            2.456437755320    -1.418323304396     0.958232758834    12.000000000000
         C           -0.000001332978     2.836801030766     0.957540742036    12.000000000000
         C            3.681826697470     0.709317955486     0.958581548631    12.000000000000
         C            2.455120048865     2.834223660974     0.958478991671    12.000000000000
         C            3.681821105219    -0.709333839944     0.974654032650    12.000000000000
         C           -1.225313598688    -0.707527516059     0.961550677117    12.000000000000
         C            1.226699581202     3.543469483479     0.974838064580    12.000000000000
         C            0.000004784858    -2.836782139751     0.974992017116    12.000000000000
         C           -2.456436032848     1.418316917770     0.975095641429    12.000000000000
         C            2.455123417779    -2.834230029103     0.974502124282    12.000000000000
         C           -1.226714364589     3.543469063235     0.974941397800    12.000000000000
         C            4.914517295202     1.427172871975     0.965062231661    12.000000000000
         C            3.693150191476     3.542795292030     0.965112031297    12.000000000000
         C           -2.456437600068    -1.418313281354     0.958207720709    12.000000000000
         C            1.226704841943    -3.543474242421     0.958867933831    12.000000000000
         C           -2.455125398508     2.834216662119     0.958485368017    12.000000000000
         C            4.914524380782    -1.427186910459     0.968034974395    12.000000000000
         C            1.221424613699     4.970134064745     0.968173408655    12.000000000000
         C            4.893008229321     2.825187999512     0.966278900020    12.000000000000
         C           -1.226697008489    -3.543470997592     0.959135138240    12.000000000000
         C           -3.681818976526     0.709324966217     0.958594229111    12.000000000000
         C            3.693147101150    -3.542801341905     0.968152864956    12.000000000000
         C           -1.221432251994     4.970128297348     0.968356904028    12.000000000000
         C            6.134770972926     0.680547946591     0.965832006211    12.000000000000
         C            3.656788880610     4.972953243053     0.966020669080    12.000000000000
         C           -2.455126907733    -2.834215093576     0.974257766484    12.000000000000
         C           -3.681819179061    -0.709325703983     0.974771654228    12.000000000000
         C            4.893012617914    -2.825200106147     0.966890051915    12.000000000000
         C           -0.000001073113     5.650447365518     0.967125595321    12.000000000000
         C            6.134775112332    -0.680554854590     0.967097326726    12.000000000000
         C            2.478131482856     5.653576750817     0.967309448730    12.000000000000
         C            1.221422404738    -4.970127055448     0.965373911633    12.000000000000
         C           -3.693162383965     3.542796953677     0.965277538757    12.000000000000
         C           -1.221428520945    -4.970118304111     0.965261149800    12.000000000000
         C           -4.914521807942     1.427175446480     0.965139176668    12.000000000000
         C            3.656787019679    -4.972955226754     0.967471169614    12.000000000000
         C           -2.478138530106     5.653574422014     0.967593973738    12.000000000000
         C           -3.693141738564    -3.542790219494     0.968036738800    12.000000000000
         C           -4.914512483053    -1.427181000542     0.968069671569    12.000000000000
         C           -0.000006008926    -5.650438287528     0.966730091200    12.000000000000
         C           -4.893020484101     2.825188598404     0.966268818160    12.000000000000
         C            2.478125993298    -5.653573544403     0.966380568822    12.000000000000
         C           -3.656798710258     4.972956181527     0.966197349454    12.000000000000
         C           -4.892999478856    -2.825191767575     0.966736016217    12.000000000000
         C           -2.478128498083    -5.653566170521     0.966105381174    12.000000000000
         C           -6.134770503331     0.680548765741     0.965806454508    12.000000000000
         C           -3.656788833189    -4.972944023485     0.967256881797    12.000000000000
         C           -6.134765042913    -0.680553915997     0.967076850931    12.000000000000
         H            5.835288495816     3.369275894439     0.970638225682     1.007825032230
         H            7.073859172747     1.228217248385     0.966293649604     1.007825032230
         H            4.600663264174     5.512380801938     0.966525869832     1.007825032230
         H            5.835283387305    -3.369306057244     0.962435584601     1.007825032230
         H           -0.000012151306     6.738530673622     0.962776350313     1.007825032230
         H            7.073861171831    -1.228226943259     0.966588588632     1.007825032230
         H            2.473313731799     6.740684290880     0.966842727799     1.007825032230
         H            4.600668491381    -5.512376129691     0.967061172445     1.007825032230
         H           -2.473318680537     6.740681719092     0.967144074424     1.007825032230
         H           -0.000010268228    -6.738528176967     0.971259776184     1.007825032230
         H           -5.835301914343     3.369270949781     0.970774247831     1.007825032230
         H            2.473307923831    -6.740685374944     0.966950899247     1.007825032230
         H           -4.600674841208     5.512378026089     0.966691198155     1.007825032230
         H           -5.835279506835    -3.369288964294     0.962156278720     1.007825032230
         H           -2.473300347440    -6.740679078655     0.966501582702     1.007825032230
         H           -7.073857766768     1.228220472326     0.966209658123     1.007825032230
         H           -4.600673786085    -5.512362670301     0.966888864423     1.007825032230
         H           -7.073856934409    -1.228220632492     0.966493732166     1.007825032230

  Charge       = 0
  Multiplicity = 1
  Basis Set: JUN-CC-PVDZ
    Blend: JUN-CC-PVDZ
  Basis Set: (JUN-CC-PVDZ AUX)
    Blend: JUN-CC-PVDZ-JKFIT

    Orbital Energies [Eh]
    ---------------------

    Doubly Occupied:

       1A    -11.260654     2A    -11.260211     3A    -11.260209
       4A    -11.259501     5A    -11.259500     6A    -11.259331
       7A    -11.259122     8A    -11.259045     9A    -11.259043
      10A    -11.258720    11A    -11.258716    12A    -11.258649
      13A    -11.258587    14A    -11.258581    15A    -11.258578
      16A    -11.258550    17A    -11.258543    18A    -11.258527
      19A    -11.258514    20A    -11.258509    21A    -11.258503
      22A    -11.258403    23A    -11.258400    24A    -11.258100
      25A    -11.257442    26A    -11.257381    27A    -11.257379
      28A    -11.257244    29A    -11.257244    30A    -11.257159
      31A    -11.256537    32A    -11.256466    33A    -11.256466
      34A    -11.256356    35A    -11.256356    36A    -11.256308
      37A    -11.252388    38A    -11.252387    39A    -11.252385
      40A    -11.252385    41A    -11.252381    42A    -11.252379
      43A    -11.251519    44A    -11.251516    45A    -11.251514
      46A    -11.251509    47A    -11.251508    48A    -11.251504
      49A    -11.250949    50A    -11.250949    51A    -11.250947
      52A    -11.250945    53A    -11.250942    54A    -11.250940
      55A     -1.244267    56A     -1.219993    57A     -1.219991
      58A     -1.189703    59A     -1.189696    60A     -1.181139
      61A     -1.157706    62A     -1.149135    63A     -1.135680
      64A     -1.135671    65A     -1.113337    66A     -1.113334
      67A     -1.082606    68A     -1.082598    69A     -1.078787
      70A     -1.066122    71A     -1.066117    72A     -1.039558
      73A     -1.024463    74A     -1.021965    75A     -1.021920
      76A     -1.017870    77A     -1.012932    78A     -0.987197
      79A     -0.987150    80A     -0.962030    81A     -0.961980
      82A     -0.894448    83A     -0.894421    84A     -0.888136
      85A     -0.886382    86A     -0.886327    87A     -0.881576
      88A     -0.881528    89A     -0.862054    90A     -0.837536
      91A     -0.818369    92A     -0.816805    93A     -0.812314
      94A     -0.812306    95A     -0.794836    96A     -0.794825
      97A     -0.746812    98A     -0.745040    99A     -0.733604
     100A     -0.733598   101A     -0.732333   102A     -0.732310
     103A     -0.716675   104A     -0.699131   105A     -0.699117
     106A     -0.693755   107A     -0.693736   108A     -0.661381
     109A     -0.653305   110A     -0.651351   111A     -0.650399
     112A     -0.650392   113A     -0.639511   114A     -0.639506
     115A     -0.629889   116A     -0.627700   117A     -0.627685
     118A     -0.606466   119A     -0.605921   120A     -0.601841
     121A     -0.599901   122A     -0.599864   123A     -0.593801
     124A     -0.591426   125A     -0.591411   126A     -0.585404
     127A     -0.576428   128A     -0.576405   129A     -0.567462
     130A     -0.567446   131A     -0.566139   132A     -0.566121
     133A     -0.558914   134A     -0.555002   135A     -0.554997
     136A     -0.538741   137A     -0.538739   138A     -0.538276
     139A     -0.538274   140A     -0.529875   141A     -0.528210
     142A     -0.523031   143A     -0.523022   144A     -0.500650
     145A     -0.495708   146A     -0.493387   147A     -0.487935
     148A     -0.485243   149A     -0.481924   150A     -0.481917
     151A     -0.470423   152A     -0.470413   153A     -0.451221
     154A     -0.451145   155A     -0.439176   156A     -0.439167
     157A     -0.404855   158A     -0.404832   159A     -0.403478
     160A     -0.375531   161A     -0.375528   162A     -0.349234
     163A     -0.337698   164A     -0.336664   165A     -0.336610
     166A     -0.311210   167A     -0.298199   168A     -0.284463
     169A     -0.284412   170A     -0.225033   171A     -0.224968

  @DF-RHF Final Energy: -2055.89185954220329

   => Energetics <=

    Nuclear Repulsion Energy =           6452.5568002797781446
    One-Electron Energy =              -15636.4331677489044523
    Two-Electron Energy =                7127.9845079269225607
    Total Energy =                      -2055.8918595422028375
 Dipole X            :          0.0001055           -0.0000085            0.0000970
 Dipole Y            :         -0.0000342            0.0000167           -0.0000175
 Dipole Z            :       -624.7412037          624.7448780            0.0036743
 Magnitude           :                                                    0.0036756

    SAPT Results
  --------------------------------------------------------------------------------------------------------
    Electrostatics                 -6.93037248 [mEh]      -4.34887439 [kcal/mol]     -18.19569045 [kJ/mol]
      Elst10,r                     -6.93037248 [mEh]      -4.34887439 [kcal/mol]     -18.19569045 [kJ/mol]

    Exchange                       -0.00022327 [mEh]      -0.00014010 [kcal/mol]      -0.00058618 [kJ/mol]
      Exch10                       -0.00022327 [mEh]      -0.00014010 [kcal/mol]      -0.00058618 [kJ/mol]
      Exch10(S^2)                  -0.00022327 [mEh]      -0.00014010 [kcal/mol]      -0.00058618 [kJ/mol]

    Induction                      -2.06206850 [mEh]      -1.29396752 [kcal/mol]      -5.41396009 [kJ/mol]
      Ind20,r                      -2.02566664 [mEh]      -1.27112501 [kcal/mol]      -5.31838703 [kJ/mol]
      Exch-Ind20,r                  0.00024256 [mEh]       0.00015221 [kcal/mol]       0.00063685 [kJ/mol]
      delta HF,r (2)               -0.03664442 [mEh]      -0.02299472 [kcal/mol]      -0.09620991 [kJ/mol]

    Dispersion                     -1.01612286 [mEh]      -0.63762672 [kcal/mol]      -2.66783021 [kJ/mol]
      Disp20                       -1.01621709 [mEh]      -0.63768585 [kcal/mol]      -2.66807760 [kJ/mol]
      Exch-Disp20                   0.00009423 [mEh]       0.00005913 [kcal/mol]       0.00024739 [kJ/mol]
      Disp20 (SS)                  -0.50810854 [mEh]      -0.31884293 [kcal/mol]      -1.33403880 [kJ/mol]
      Disp20 (OS)                  -0.50810854 [mEh]      -0.31884293 [kcal/mol]      -1.33403880 [kJ/mol]
      Exch-Disp20 (SS)              0.00007149 [mEh]       0.00004486 [kcal/mol]       0.00018770 [kJ/mol]
      Exch-Disp20 (OS)              0.00002274 [mEh]       0.00001427 [kcal/mol]       0.00005969 [kJ/mol]

  Total HF                         -8.99266424 [mEh]      -5.64298201 [kcal/mol]     -23.61023672 [kJ/mol]
  Total SAPT0                     -10.00878711 [mEh]      -6.28060873 [kcal/mol]     -26.27806693 [kJ/mol]

  Special recipe for scaled SAPT0 (see Manual):
    Electrostatics sSAPT0          -6.93037248 [mEh]      -4.34887439 [kcal/mol]     -18.19569045 [kJ/mol]
    Exchange sSAPT0                -0.00022327 [mEh]      -0.00014010 [kcal/mol]      -0.00058618 [kJ/mol]
    Induction sSAPT0               -2.06206850 [mEh]      -1.29396752 [kcal/mol]      -5.41396009 [kJ/mol]
    Dispersion sSAPT0              -1.01612286 [mEh]      -0.63762672 [kcal/mol]      -2.66783021 [kJ/mol]
  Total sSAPT0                    -10.00878711 [mEh]      -6.28060873 [kcal/mol]     -26.27806693 [kJ/mol]
  --------------------------------------------------------------------------------------------------------

*** Psi4 exiting successfully. Buy a developer a beer!
