                               Psi4 1.9 release

  ==> Input File <==

--------------------------------------------------------------------------
memory 32 GB # how much memory is available ! Depends on the nodes/cores !

molecule dimer {
# monomer A
-1 1    # Charge and multiplicity
B -0.000046  0.000337 7.199994
F -1.153597  0.000048 8.015641
F  1.153661 -0.000581 8.015641
F -0.000019 -1.153637 6.384360
F -0.000019  1.153978 6.384360
--
# monomer B
0 1     # Charge and multiplicity
C   1.22531237526482      0.70753866091955      0.00613762728373
C   1.22532433589282     -0.70753852257020     -0.00619318228664
C   -0.00000567409046      1.41496628609039     -0.00672680580738
C   2.45644923379077      1.41832825917820      0.00902448468363
C   0.00001130712078     -1.41497612663474      0.00347275151708
C   -1.22530046906674      0.70754574598412      0.00838914760619
C   2.45643823516184     -1.41832293188077     -0.00843833914343
C   -0.00000085313587      2.83680140328112     -0.00913035594137
C   3.68182717731192      0.70931832800114     -0.00808954934571
C   2.45512052870677      2.83422403348893     -0.00819210630633
C   3.68182158506039     -0.70933346742900      0.00798293467272
C   -1.22531311884624     -0.70752714354401     -0.00512042085974
C   1.22670006104402      3.54346985599427      0.00816696660346
C   0.00000526469929     -2.83678176723568      0.00832091913869
C   -2.45643555300670      1.41831729028492      0.00842454345199
C   2.45512389762097     -2.83422965658853      0.00783102630520
C   -1.22671388474763      3.54346943575023      0.00827029982280
C   4.91451777504333      1.42717324448953     -0.00160886631602
C   3.69315067131765      3.54279566454522     -0.00155906667985
C   -2.45643712022637     -1.41831290883911     -0.00846337726810
C   1.22670532178455     -3.54347386990643     -0.00780316414624
C   -2.45512491866593      2.83421703463423     -0.00818572995999
C   4.91452486062398     -1.42718653794377      0.00136387641845
C   1.22142509354026      4.97013443726031      0.00150231067809
C   4.89300870916237      2.82518837202648     -0.00039219795739
C   -1.22669652864725     -3.54347062507680     -0.00753595973677
C   -3.68181849668397      0.70932533873199     -0.00807686886569
C   3.69314758099218     -3.54280096939050      0.00148176697923
C   -1.22143177215231      4.97012866986289      0.00168580605083
C   6.13477145276790      0.68054831910577     -0.00083909176631
C   3.65678936045204      4.97295361556775     -0.00065042889723
C   -2.45512642789169     -2.83421472106065      0.00758666850712
C   -3.68181869921921     -0.70932533146830      0.00810055625144
C   4.89301309775526     -2.82519973363176      0.00021895393805
C   -0.00000059327114      5.65044773803267      0.00045449734393
C   6.13477559217374     -0.68055448207492      0.00042622874941
C   2.47813196269732      5.65357712333155      0.00063835075260
C   1.22142288457925     -4.97012668293268     -0.00129718634452
C   -3.69316190412301      3.54279732619245     -0.00139355922051
C   -1.22142804110313     -4.97011793159564     -0.00140994817719
C   -4.91452132810043      1.42717581899491     -0.00153192130862
C   3.65678749952045     -4.97295485423912      0.00080007163680
C   -2.47813805026426      5.65357479452875      0.00092287576113
C   -3.69314125872231     -3.54278984697859      0.00136564082345
C   -4.91451200321153     -1.42718062802730      0.00139857359209
C   -0.00000552908399     -5.65043791501335      0.00005899322272
C   -4.89302000425900      2.82518897091939     -0.00040227981744
C   2.47812647313991     -5.65357317188818     -0.00029052915548
C   -3.65679823041642      4.97295655404175     -0.00047374852278
C   -4.89299899901461     -2.82519139505969      0.00006491824035
C   -2.47812801824129     -5.65356579800621     -0.00056571680280
C   -6.13477002348955      0.68054913825639     -0.00086464346868
C   -3.65678835334731     -4.97294365097028      0.00058578382008
C   -6.13476456307132     -0.68055354348201      0.00040575295444
H   5.83528897565761      3.36927626695423      0.00396712770529
H   7.07385965258860      1.22821762089947     -0.00037744837300
H   4.60066374401555      5.51238117445323     -0.00014522814529
H   5.83528386714679     -3.36930568472863     -0.00423551337640
H   -0.00001167146422      6.73853104613662     -0.00389474766392
H   7.07386165167227     -1.22822657074368     -0.00008250934481
H   2.47331421164041      6.74068466339473      0.00017162982210
H   4.60066897122302     -5.51237575717576      0.00039007446835
H   -2.47331820069565      6.74068209160650      0.00047297644710
H   -0.00000978838621     -6.73852780445195      0.00458867820736
H   -5.83530143450167      3.36927132229595      0.00410314985360
H   2.47330840367253     -6.74068500242887      0.00027980126949
H   -4.60067436136587      5.51237839860371      0.00002010017831
H   -5.83527902699321     -3.36928859177951     -0.00451481925734
H   -2.47329986759855     -6.74067870613986     -0.00016951527498
H   -7.07385728692578      1.22822084484047     -0.00046143985387
H   -4.60067330624313     -5.51236229778631      0.00021776644566
H   -7.07385645456741     -1.22822025997701     -0.00017736581114

    units angstrom      # Angstroms are the default
    no_reorient         # Geometry fixed, default
    symmetry c1         # C1 symmetry, default
}

set {
    scf_type DF         # Density fitting, faster than exact integrals
    freeze_core True    # Freeze core electrons
    basis jun-cc-pVDZ   # Jun-cc-pVDZ basis set, recommended for sSAPT0 in https://doi.org/10.1063/1.4867135
}

energy('ssapt0')        # Compute sSAPT0 energy, includes also SAPT0
--------------------------------------------------------------------------

  //              Dimer HF             //
    Molecular point group: c1
  Charge       = -1
  Multiplicity = 1
  Basis Set: JUN-CC-PVDZ
    Blend: JUN-CC-PVDZ
  Basis Set: (JUN-CC-PVDZ AUX)
    Blend: JUN-CC-PVDZ-JKFIT
  @DF-RHF Final Energy: -2478.65805835378069
    Total Energy =                      -2478.6580583537815983
 Dipole X            :         -0.0001809           -0.0000160           -0.0001970
 Dipole Y            :          0.0012767           -0.0001716            0.0011051
 Dipole Z            :         32.8435332          -44.1382269          -11.2946937
 Magnitude           :                                                   11.2946937
  //            Monomer A HF           //
    Molecular point group: c1
  Multiplicity = 1
  Basis Set: JUN-CC-PVDZ
    Blend: JUN-CC-PVDZ
  Basis Set: (JUN-CC-PVDZ AUX)
    Blend: JUN-CC-PVDZ-JKFIT
  @DF-RHF Final Energy:  -422.77144361412445
    Total Energy =                       -422.7714436141244505
  //            Monomer B HF           //
    Molecular point group: c1

    Geometry (in Angstrom), charge = 0, multiplicity = 1:

       Center              X                  Y                   Z               Mass
    ------------   -----------------  -----------------  -----------------  -----------------
      Gh(B)          -0.000046449334     0.000336519434     6.368254657462    11.009305360000
      Gh(F)          -1.153597449334     0.000047519434     7.183901657462    18.998403162730
      Gh(F)           1.153660550666    -0.000581480566     7.183901657462    18.998403162730
      Gh(F)          -0.000019449334    -1.153637480566     5.552620657462    18.998403162730
      Gh(F)          -0.000019449334     1.153977519434     5.552620657462    18.998403162730
         C            1.225311925931     0.707538180353    -0.825601715254    12.000000000000
         C            1.225323886559    -0.707539003137    -0.837932524824    12.000000000000
         C           -0.000006123424     1.414965805524    -0.838466148345    12.000000000000
         C            2.456448784457     1.418327778612    -0.822714857854    12.000000000000
         C            0.000010857787    -1.414976607201    -0.828266591021    12.000000000000
         C           -1.225300918401     0.707545265418    -0.823350194932    12.000000000000
         C            2.456437785828    -1.418323412447    -0.840177681681    12.000000000000
         C           -0.000001302470     2.836800922715    -0.840869698479    12.000000000000
         C            3.681826727978     0.709317847435    -0.839828891883    12.000000000000
         C            2.455120079373     2.834223552923    -0.839931448844    12.000000000000
         C            3.681821135726    -0.709333947995    -0.823756407865    12.000000000000
         C           -1.225313568180    -0.707527624110    -0.836859763398    12.000000000000
         C            1.226699611710     3.543469375428    -0.823572375934    12.000000000000
         C            0.000004815365    -2.836782247802    -0.823418423399    12.000000000000
         C           -2.456436002341     1.418316809719    -0.823314799086    12.000000000000
         C            2.455123448287    -2.834230137155    -0.823908316233    12.000000000000
         C           -1.226714334082     3.543468955184    -0.823469042715    12.000000000000
         C            4.914517325709     1.427172763923    -0.833348208854    12.000000000000
         C            3.693150221984     3.542795183979    -0.833298409218    12.000000000000
         C           -2.456437569560    -1.418313389406    -0.840202719806    12.000000000000
         C            1.226704872451    -3.543474350473    -0.839542506684    12.000000000000
         C           -2.455125368000     2.834216554068    -0.839925072498    12.000000000000
         C            4.914524411290    -1.427187018510    -0.830375466119    12.000000000000
         C            1.221424644206     4.970133956694    -0.830237031860    12.000000000000
         C            4.893008259828     2.825187891460    -0.832131540495    12.000000000000
         C           -1.226696977981    -3.543471105643    -0.839275302275    12.000000000000
         C           -3.681818946018     0.709324858166    -0.839816211403    12.000000000000
         C            3.693147131658    -3.542801449957    -0.830257575559    12.000000000000
         C           -1.221432221486     4.970128189296    -0.830053536487    12.000000000000
         C            6.134771003434     0.680547838539    -0.832578434304    12.000000000000
         C            3.656788911118     4.972953135001    -0.832389771435    12.000000000000
         C           -2.455126877226    -2.834215201627    -0.824152674031    12.000000000000
         C           -3.681819148553    -0.709325812035    -0.823638786286    12.000000000000
         C            4.893012648421    -2.825200214198    -0.831520388600    12.000000000000
         C           -0.000001042605     5.650447257466    -0.831284845194    12.000000000000
         C            6.134775142840    -0.680554962641    -0.831313113788    12.000000000000
         C            2.478131513363     5.653576642765    -0.831100991785    12.000000000000
         C            1.221422435245    -4.970127163499    -0.833036528882    12.000000000000
         C           -3.693162353457     3.542796845626    -0.833132901758    12.000000000000
         C           -1.221428490437    -4.970118412162    -0.833149290715    12.000000000000
         C           -4.914521777434     1.427175338429    -0.833271263846    12.000000000000
         C            3.656787050187    -4.972955334806    -0.830939270901    12.000000000000
         C           -2.478138499598     5.653574313962    -0.830816466777    12.000000000000
         C           -3.693141708056    -3.542790327545    -0.830373701714    12.000000000000
         C           -4.914512452545    -1.427181108594    -0.830340768946    12.000000000000
         C           -0.000005978418    -5.650438395580    -0.831680349315    12.000000000000
         C           -4.893020453593     2.825188490353    -0.832141622355    12.000000000000
         C            2.478126023806    -5.653573652455    -0.832029871693    12.000000000000
         C           -3.656798679750     4.972956073475    -0.832213091061    12.000000000000
         C           -4.892999448349    -2.825191875626    -0.831674424297    12.000000000000
         C           -2.478128467575    -5.653566278573    -0.832305059341    12.000000000000
         C           -6.134770472823     0.680548657690    -0.832603986006    12.000000000000
         C           -3.656788802681    -4.972944131537    -0.831153558718    12.000000000000
         C           -6.134765012405    -0.680554024048    -0.831333589583    12.000000000000
         H            5.835288526324     3.369275786388    -0.827772214832     1.007825032230
         H            7.073859203255     1.228217140333    -0.832116790911     1.007825032230
         H            4.600663294682     5.512380693887    -0.831884570683     1.007825032230
         H            5.835283417813    -3.369306165295    -0.835974855914     1.007825032230
         H           -0.000012120798     6.738530565570    -0.835634090202     1.007825032230
         H            7.073861202338    -1.228227051310    -0.831821851883     1.007825032230
         H            2.473313762307     6.740684182828    -0.831567712716     1.007825032230
         H            4.600668521889    -5.512376237742    -0.831349268069     1.007825032230
         H           -2.473318650030     6.740681611040    -0.831266366091     1.007825032230
         H           -0.000010237720    -6.738528285018    -0.827150664330     1.007825032230
         H           -5.835301883836     3.369270841730    -0.827636192684     1.007825032230
         H            2.473307954339    -6.740685482995    -0.831459541268     1.007825032230
         H           -4.600674810700     5.512377918037    -0.831719242359     1.007825032230
         H           -5.835279476327    -3.369289072346    -0.836254161795     1.007825032230
         H           -2.473300316932    -6.740679186706    -0.831908857813     1.007825032230
         H           -7.073857736260     1.228220364274    -0.832200782392     1.007825032230
         H           -4.600673755577    -5.512362778353    -0.831521576092     1.007825032230
         H           -7.073856903901    -1.228220740543    -0.831916708349     1.007825032230

  Charge       = 0
  Multiplicity = 1
  Basis Set: JUN-CC-PVDZ
    Blend: JUN-CC-PVDZ
  Basis Set: (JUN-CC-PVDZ AUX)
    Blend: JUN-CC-PVDZ-JKFIT

    Orbital Energies [Eh]
    ---------------------

    Doubly Occupied:

       1A    -11.260676     2A    -11.260233     3A    -11.260230
       4A    -11.259522     5A    -11.259520     6A    -11.259351
       7A    -11.259141     8A    -11.259064     9A    -11.259062
      10A    -11.258738    11A    -11.258734    12A    -11.258665
      13A    -11.258603    14A    -11.258598    15A    -11.258595
      16A    -11.258566    17A    -11.258560    18A    -11.258544
      19A    -11.258531    20A    -11.258526    21A    -11.258520
      22A    -11.258423    23A    -11.258419    24A    -11.258121
      25A    -11.257460    26A    -11.257399    27A    -11.257397
      28A    -11.257263    29A    -11.257262    30A    -11.257178
      31A    -11.256556    32A    -11.256485    33A    -11.256484
      34A    -11.256375    35A    -11.256375    36A    -11.256327
      37A    -11.252401    38A    -11.252401    39A    -11.252399
      40A    -11.252398    41A    -11.252396    42A    -11.252394
      43A    -11.251536    44A    -11.251533    45A    -11.251532
      46A    -11.251526    47A    -11.251526    48A    -11.251521
      49A    -11.250963    50A    -11.250962    51A    -11.250960
      52A    -11.250958    53A    -11.250957    54A    -11.250955
      55A     -1.244298    56A     -1.220016    57A     -1.220016
      58A     -1.189724    59A     -1.189717    60A     -1.181168
      61A     -1.157724    62A     -1.149156    63A     -1.135708
      64A     -1.135700    65A     -1.113358    66A     -1.113353
      67A     -1.082631    68A     -1.082624    69A     -1.078814
      70A     -1.066141    71A     -1.066137    72A     -1.039581
      73A     -1.024491    74A     -1.021995    75A     -1.021952
      76A     -1.017890    77A     -1.012952    78A     -0.987223
      79A     -0.987176    80A     -0.962051    81A     -0.962002
      82A     -0.894470    83A     -0.894444    84A     -0.888167
      85A     -0.886414    86A     -0.886356    87A     -0.881602
      88A     -0.881554    89A     -0.862076    90A     -0.837554
      91A     -0.818392    92A     -0.816833    93A     -0.812341
      94A     -0.812332    95A     -0.794857    96A     -0.794846
      97A     -0.746841    98A     -0.745067    99A     -0.733634
     100A     -0.733626   101A     -0.732355   102A     -0.732332
     103A     -0.716702   104A     -0.699152   105A     -0.699141
     106A     -0.693778   107A     -0.693762   108A     -0.661402
     109A     -0.653335   110A     -0.651381   111A     -0.650419
     112A     -0.650414   113A     -0.639531   114A     -0.639529
     115A     -0.629916   116A     -0.627727   117A     -0.627711
     118A     -0.606461   119A     -0.605936   120A     -0.601868
     121A     -0.599921   122A     -0.599890   123A     -0.593825
     124A     -0.591456   125A     -0.591445   126A     -0.585422
     127A     -0.576420   128A     -0.576414   129A     -0.567481
     130A     -0.567466   131A     -0.566168   132A     -0.566148
     133A     -0.558943   134A     -0.555025   135A     -0.555019
     136A     -0.538762   137A     -0.538760   138A     -0.538290
     139A     -0.538284   140A     -0.529898   141A     -0.528207
     142A     -0.523053   143A     -0.523047   144A     -0.500671
     145A     -0.495721   146A     -0.493409   147A     -0.487949
     148A     -0.485269   149A     -0.481949   150A     -0.481942
     151A     -0.470440   152A     -0.470420   153A     -0.451254
     154A     -0.451175   155A     -0.439191   156A     -0.439181
     157A     -0.404871   158A     -0.404848   159A     -0.403492
     160A     -0.375545   161A     -0.375542   162A     -0.349249
     163A     -0.337717   164A     -0.336685   165A     -0.336626
     166A     -0.311226   167A     -0.298213   168A     -0.284482
     169A     -0.284429   170A     -0.225051   171A     -0.224985

  @DF-RHF Final Energy: -2055.89165912993303

   => Energetics <=

    Nuclear Repulsion Energy =           6452.5568002797781446
    One-Electron Energy =              -15636.4257690059421293
    Two-Electron Energy =                7127.9773095962318621
    Total Energy =                      -2055.8916591299330321
 Dipole X            :          0.0000813            0.0000112            0.0000925
 Dipole Y            :          0.0000262           -0.0000531           -0.0000269
 Dipole Z            :        537.5421475         -537.5432143           -0.0010668
 Magnitude           :                                                    0.0010711

    SAPT Results
  --------------------------------------------------------------------------------------------------------
    Electrostatics                  7.17529387 [mEh]       4.50256488 [kcal/mol]      18.83873145 [kJ/mol]
      Elst10,r                      7.17529387 [mEh]       4.50256488 [kcal/mol]      18.83873145 [kJ/mol]

    Exchange                       -0.00016707 [mEh]      -0.00010484 [kcal/mol]      -0.00043865 [kJ/mol]
      Exch10                       -0.00016707 [mEh]      -0.00010484 [kcal/mol]      -0.00043865 [kJ/mol]
      Exch10(S^2)                  -0.00016707 [mEh]      -0.00010484 [kcal/mol]      -0.00043865 [kJ/mol]

    Induction                      -2.13073652 [mEh]      -1.33705735 [kcal/mol]      -5.59424796 [kJ/mol]
      Ind20,r                      -2.14421847 [mEh]      -1.34551740 [kcal/mol]      -5.62964481 [kJ/mol]
      Exch-Ind20,r                  0.00008652 [mEh]       0.00005429 [kcal/mol]       0.00022717 [kJ/mol]
      delta HF,r (2)                0.01339543 [mEh]       0.00840576 [kcal/mol]       0.03516969 [kJ/mol]

    Dispersion                     -0.34265467 [mEh]      -0.21501905 [kcal/mol]      -0.89963971 [kJ/mol]
      Disp20                       -0.34272160 [mEh]      -0.21506105 [kcal/mol]      -0.89981543 [kJ/mol]
      Exch-Disp20                   0.00006693 [mEh]       0.00004200 [kcal/mol]       0.00017572 [kJ/mol]
      Disp20 (SS)                  -0.17136080 [mEh]      -0.10753052 [kcal/mol]      -0.44990772 [kJ/mol]
      Disp20 (OS)                  -0.17136080 [mEh]      -0.10753052 [kcal/mol]      -0.44990772 [kJ/mol]
      Exch-Disp20 (SS)              0.00005184 [mEh]       0.00003253 [kcal/mol]       0.00013610 [kJ/mol]
      Exch-Disp20 (OS)              0.00001509 [mEh]       0.00000947 [kcal/mol]       0.00003962 [kJ/mol]

  Total HF                          5.04439028 [mEh]       3.16540269 [kcal/mol]      13.24404485 [kJ/mol]
  Total SAPT0                       4.70173561 [mEh]       2.95038364 [kcal/mol]      12.34440514 [kJ/mol]

  Special recipe for scaled SAPT0 (see Manual):
    Electrostatics sSAPT0           7.17529387 [mEh]       4.50256488 [kcal/mol]      18.83873145 [kJ/mol]
    Exchange sSAPT0                -0.00016707 [mEh]      -0.00010484 [kcal/mol]      -0.00043865 [kJ/mol]
    Induction sSAPT0               -2.13073652 [mEh]      -1.33705735 [kcal/mol]      -5.59424796 [kJ/mol]
    Dispersion sSAPT0              -0.34265467 [mEh]      -0.21501905 [kcal/mol]      -0.89963971 [kJ/mol]
  Total sSAPT0                      4.70173561 [mEh]       2.95038364 [kcal/mol]      12.34440514 [kJ/mol]
  --------------------------------------------------------------------------------------------------------

*** Psi4 exiting successfully. Buy a developer a beer!
