                               Psi4 1.9 release

  ==> Input File <==

--------------------------------------------------------------------------
memory 48 GB # how much memory is available ! Depends on the nodes/cores !

molecule dimer {
# monomer A
+1 1    # Charge and multiplicity
C  0.680067 -1.215929 2.708042
C -0.680504 -1.215545 2.706014
N -1.085635  0.102779 2.705016
C  0.000108  0.884180 2.701740
C -2.477365  0.570758 2.655610
N  1.085222  0.102779 2.705016
H  1.385146 -2.033368 2.715870
H -1.385302 -2.033214 2.706204
H -0.000009  1.965269 2.699993
C  2.478117  0.567877 2.721908
H  2.490592  1.658130 2.694563
H  2.967028  0.220701 3.635354
H  3.001428  0.176405 1.846425
H -2.857359  0.490799 1.633539
H -3.082679 -0.042306 3.325694
H -2.518128  1.610706 2.982594
--
# monomer B
0 1     # Charge and multiplicity
C   1.22531237526482      0.70753866091955      0.00613762728373
C   1.22532433589282     -0.70753852257020     -0.00619318228664
C   -0.00000567409046      1.41496628609039     -0.00672680580738
C   2.45644923379077      1.41832825917820      0.00902448468363
C   0.00001130712078     -1.41497612663474      0.00347275151708
C   -1.22530046906674      0.70754574598412      0.00838914760619
C   2.45643823516184     -1.41832293188077     -0.00843833914343
C   -0.00000085313587      2.83680140328112     -0.00913035594137
C   3.68182717731192      0.70931832800114     -0.00808954934571
C   2.45512052870677      2.83422403348893     -0.00819210630633
C   3.68182158506039     -0.70933346742900      0.00798293467272
C   -1.22531311884624     -0.70752714354401     -0.00512042085974
C   1.22670006104402      3.54346985599427      0.00816696660346
C   0.00000526469929     -2.83678176723568      0.00832091913869
C   -2.45643555300670      1.41831729028492      0.00842454345199
C   2.45512389762097     -2.83422965658853      0.00783102630520
C   -1.22671388474763      3.54346943575023      0.00827029982280
C   4.91451777504333      1.42717324448953     -0.00160886631602
C   3.69315067131765      3.54279566454522     -0.00155906667985
C   -2.45643712022637     -1.41831290883911     -0.00846337726810
C   1.22670532178455     -3.54347386990643     -0.00780316414624
C   -2.45512491866593      2.83421703463423     -0.00818572995999
C   4.91452486062398     -1.42718653794377      0.00136387641845
C   1.22142509354026      4.97013443726031      0.00150231067809
C   4.89300870916237      2.82518837202648     -0.00039219795739
C   -1.22669652864725     -3.54347062507680     -0.00753595973677
C   -3.68181849668397      0.70932533873199     -0.00807686886569
C   3.69314758099218     -3.54280096939050      0.00148176697923
C   -1.22143177215231      4.97012866986289      0.00168580605083
C   6.13477145276790      0.68054831910577     -0.00083909176631
C   3.65678936045204      4.97295361556775     -0.00065042889723
C   -2.45512642789169     -2.83421472106065      0.00758666850712
C   -3.68181869921921     -0.70932533146830      0.00810055625144
C   4.89301309775526     -2.82519973363176      0.00021895393805
C   -0.00000059327114      5.65044773803267      0.00045449734393
C   6.13477559217374     -0.68055448207492      0.00042622874941
C   2.47813196269732      5.65357712333155      0.00063835075260
C   1.22142288457925     -4.97012668293268     -0.00129718634452
C   -3.69316190412301      3.54279732619245     -0.00139355922051
C   -1.22142804110313     -4.97011793159564     -0.00140994817719
C   -4.91452132810043      1.42717581899491     -0.00153192130862
C   3.65678749952045     -4.97295485423912      0.00080007163680
C   -2.47813805026426      5.65357479452875      0.00092287576113
C   -3.69314125872231     -3.54278984697859      0.00136564082345
C   -4.91451200321153     -1.42718062802730      0.00139857359209
C   -0.00000552908399     -5.65043791501335      0.00005899322272
C   -4.89302000425900      2.82518897091939     -0.00040227981744
C   2.47812647313991     -5.65357317188818     -0.00029052915548
C   -3.65679823041642      4.97295655404175     -0.00047374852278
C   -4.89299899901461     -2.82519139505969      0.00006491824035
C   -2.47812801824129     -5.65356579800621     -0.00056571680280
C   -6.13477002348955      0.68054913825639     -0.00086464346868
C   -3.65678835334731     -4.97294365097028      0.00058578382008
C   -6.13476456307132     -0.68055354348201      0.00040575295444
H   5.83528897565761      3.36927626695423      0.00396712770529
H   7.07385965258860      1.22821762089947     -0.00037744837300
H   4.60066374401555      5.51238117445323     -0.00014522814529
H   5.83528386714679     -3.36930568472863     -0.00423551337640
H   -0.00001167146422      6.73853104613662     -0.00389474766392
H   7.07386165167227     -1.22822657074368     -0.00008250934481
H   2.47331421164041      6.74068466339473      0.00017162982210
H   4.60066897122302     -5.51237575717576      0.00039007446835
H   -2.47331820069565      6.74068209160650      0.00047297644710
H   -0.00000978838621     -6.73852780445195      0.00458867820736
H   -5.83530143450167      3.36927132229595      0.00410314985360
H   2.47330840367253     -6.74068500242887      0.00027980126949
H   -4.60067436136587      5.51237839860371      0.00002010017831
H   -5.83527902699321     -3.36928859177951     -0.00451481925734
H   -2.47329986759855     -6.74067870613986     -0.00016951527498
H   -7.07385728692578      1.22822084484047     -0.00046143985387
H   -4.60067330624313     -5.51236229778631      0.00021776644566
H   -7.07385645456741     -1.22822025997701     -0.00017736581114

    units angstrom      # Angstroms are the default
    no_reorient         # Geometry fixed, default
    symmetry c1         # C1 symmetry, default
}

set {
    scf_type DF         # Density fitting, faster than exact integrals
    freeze_core True    # Freeze core electrons
    basis jun-cc-pVDZ   # Jun-cc-pVDZ basis set, recommended for sSAPT0 in https://doi.org/10.1063/1.4867135
}

energy('ssapt0')        # Compute sSAPT0 energy, includes also SAPT0
--------------------------------------------------------------------------

  //              Dimer HF             //
    Molecular point group: c1
  Charge       = 1
  Multiplicity = 1
  Basis Set: JUN-CC-PVDZ
    Blend: JUN-CC-PVDZ
  Basis Set: (JUN-CC-PVDZ AUX)
    Blend: JUN-CC-PVDZ-JKFIT
  @DF-RHF Final Energy: -2359.10097943166420
    Total Energy =                      -2359.1009794316632906
 Dipole X            :          0.0055084            0.0006313            0.0061397
 Dipole Y            :         -1.6917909            1.8864948            0.1947039
 Dipole Z            :        -11.4027520           14.0183385            2.6155865
 Magnitude           :                                                    2.6228306
  //            Monomer A HF           //
    Molecular point group: c1
  Multiplicity = 1
  Basis Set: JUN-CC-PVDZ
    Blend: JUN-CC-PVDZ
  Basis Set: (JUN-CC-PVDZ AUX)
    Blend: JUN-CC-PVDZ-JKFIT
  @DF-RHF Final Energy:  -303.30026599891414
    Total Energy =                       -303.3002659989141421
  //            Monomer B HF           //
    Molecular point group: c1

    Geometry (in Angstrom), charge = 0, multiplicity = 1:

       Center              X                  Y                   Z               Mass
    ------------   -----------------  -----------------  -----------------  -----------------
      Gh(C)           0.680066520158    -1.215933861162     2.364620746509    12.000000000000
      Gh(C)          -0.680504479842    -1.215549861162     2.362592746509    12.000000000000
      Gh(N)          -1.085635479842     0.102774138838     2.361594746509    14.003074004430
      Gh(C)           0.000107520158     0.884175138838     2.358318746509    12.000000000000
      Gh(C)          -2.477365479842     0.570753138838     2.312188746509    12.000000000000
      Gh(N)           1.085221520158     0.102774138838     2.361594746509    14.003074004430
      Gh(H)           1.385145520158    -2.033372861162     2.372448746509     1.007825032230
      Gh(H)          -1.385302479842    -2.033218861162     2.362782746509     1.007825032230
      Gh(H)          -0.000009479842     1.965264138838     2.356571746509     1.007825032230
      Gh(C)           2.478116520158     0.567872138838     2.378486746509    12.000000000000
      Gh(H)           2.490591520158     1.658125138838     2.351141746509     1.007825032230
      Gh(H)           2.967027520158     0.220696138838     3.291932746509     1.007825032230
      Gh(H)           3.001427520158     0.176400138838     1.503003746509     1.007825032230
      Gh(H)          -2.857359479842     0.490794138838     1.290117746509     1.007825032230
      Gh(H)          -3.082679479842    -0.042310861162     2.982272746509     1.007825032230
      Gh(H)          -2.518128479842     1.610701138838     2.639172746509     1.007825032230
         C            1.225311895423     0.707533799757    -0.337283626208    12.000000000000
         C            1.225323856051    -0.707543383733    -0.349614435778    12.000000000000
         C           -0.000006153932     1.414961424928    -0.350148059299    12.000000000000
         C            2.456448753949     1.418323398016    -0.334396768808    12.000000000000
         C            0.000010827279    -1.414980987797    -0.339948501974    12.000000000000
         C           -1.225300948908     0.707540884822    -0.335032105885    12.000000000000
         C            2.456437755320    -1.418327793043    -0.351859592635    12.000000000000
         C           -0.000001332978     2.836796542119    -0.352551609433    12.000000000000
         C            3.681826697470     0.709313466839    -0.351510802837    12.000000000000
         C            2.455120048865     2.834219172327    -0.351613359798    12.000000000000
         C            3.681821105219    -0.709338328591    -0.335438318819    12.000000000000
         C           -1.225313598688    -0.707532004706    -0.348541674351    12.000000000000
         C            1.226699581202     3.543464994832    -0.335254286888    12.000000000000
         C            0.000004784858    -2.836786628398    -0.335100334353    12.000000000000
         C           -2.456436032848     1.418312429123    -0.334996710039    12.000000000000
         C            2.455123417779    -2.834234517751    -0.335590227186    12.000000000000
         C           -1.226714364589     3.543464574588    -0.335150953669    12.000000000000
         C            4.914517295202     1.427168383327    -0.345030119807    12.000000000000
         C            3.693150191476     3.542790803383    -0.344980320171    12.000000000000
         C           -2.456437600068    -1.418317770001    -0.351884630760    12.000000000000
         C            1.226704841943    -3.543478731069    -0.351224417638    12.000000000000
         C           -2.455125398508     2.834212173472    -0.351606983451    12.000000000000
         C            4.914524380782    -1.427191399106    -0.342057377073    12.000000000000
         C            1.221424613699     4.970129576098    -0.341918942813    12.000000000000
         C            4.893008229321     2.825183510864    -0.343813451449    12.000000000000
         C           -1.226697008489    -3.543475486239    -0.350957213228    12.000000000000
         C           -3.681818976526     0.709320477570    -0.351498122357    12.000000000000
         C            3.693147101150    -3.542805830553    -0.341939486512    12.000000000000
         C           -1.221432251994     4.970123808701    -0.341735447441    12.000000000000
         C            6.134770972926     0.680543457943    -0.344260345258    12.000000000000
         C            3.656788880610     4.972948754405    -0.344071682389    12.000000000000
         C           -2.455126907733    -2.834219582223    -0.335834584984    12.000000000000
         C           -3.681819179061    -0.709330192631    -0.335320697240    12.000000000000
         C            4.893012617914    -2.825204594794    -0.343202299553    12.000000000000
         C           -0.000001073113     5.650442876870    -0.342966756148    12.000000000000
         C            6.134775112332    -0.680559343237    -0.342995024742    12.000000000000
         C            2.478131482856     5.653572262169    -0.342782902739    12.000000000000
         C            1.221422404738    -4.970131544095    -0.344718439836    12.000000000000
         C           -3.693162383965     3.542792465030    -0.344814812712    12.000000000000
         C           -1.221428520945    -4.970122792758    -0.344831201669    12.000000000000
         C           -4.914521807942     1.427170957833    -0.344953174800    12.000000000000
         C            3.656787019679    -4.972959715401    -0.342621181855    12.000000000000
         C           -2.478138530106     5.653569933366    -0.342498377730    12.000000000000
         C           -3.693141738564    -3.542794708141    -0.342055612668    12.000000000000
         C           -4.914512483053    -1.427185489190    -0.342022679899    12.000000000000
         C           -0.000006008926    -5.650442776176    -0.343362260269    12.000000000000
         C           -4.893020484101     2.825184109757    -0.343823533309    12.000000000000
         C            2.478125993298    -5.653578033051    -0.343711782647    12.000000000000
         C           -3.656798710258     4.972951692879    -0.343895002014    12.000000000000
         C           -4.892999478856    -2.825196256222    -0.343356335251    12.000000000000
         C           -2.478128498083    -5.653570659169    -0.343986970294    12.000000000000
         C           -6.134770503331     0.680544277094    -0.344285896960    12.000000000000
         C           -3.656788833189    -4.972948512133    -0.342835469671    12.000000000000
         C           -6.134765042913    -0.680558404644    -0.343015500537    12.000000000000
         H            5.835288495816     3.369271405792    -0.339454125786     1.007825032230
         H            7.073859172747     1.228212759737    -0.343798701864     1.007825032230
         H            4.600663264174     5.512376313291    -0.343566481637     1.007825032230
         H            5.835283387305    -3.369310545891    -0.347656766868     1.007825032230
         H           -0.000012151306     6.738526184974    -0.347316001155     1.007825032230
         H            7.073861171831    -1.228231431906    -0.343503762836     1.007825032230
         H            2.473313731799     6.740679802232    -0.343249623669     1.007825032230
         H            4.600668491381    -5.512380618338    -0.343031179023     1.007825032230
         H           -2.473318680537     6.740677230444    -0.342948277044     1.007825032230
         H           -0.000010268228    -6.738532665614    -0.338832575284     1.007825032230
         H           -5.835301914343     3.369266461134    -0.339318103638     1.007825032230
         H            2.473307923831    -6.740689863591    -0.343141452222     1.007825032230
         H           -4.600674841208     5.512373537441    -0.343401153313     1.007825032230
         H           -5.835279506835    -3.369293452942    -0.347936072749     1.007825032230
         H           -2.473300347440    -6.740683567302    -0.343590768766     1.007825032230
         H           -7.073857766768     1.228215983678    -0.343882693345     1.007825032230
         H           -4.600673786085    -5.512367158949    -0.343203487046     1.007825032230
         H           -7.073856934409    -1.228225121139    -0.343598619303     1.007825032230

  Charge       = 0
  Multiplicity = 1
  Basis Set: JUN-CC-PVDZ
    Blend: JUN-CC-PVDZ
  Basis Set: (JUN-CC-PVDZ AUX)
    Blend: JUN-CC-PVDZ-JKFIT

    Orbital Energies [Eh]
    ---------------------

    Doubly Occupied:

       1A    -11.260673     2A    -11.260223     3A    -11.260208
       4A    -11.259457     5A    -11.259434     6A    -11.259244
       7A    -11.258982     8A    -11.258916     9A    -11.258884
      10A    -11.258565    11A    -11.258558    12A    -11.258376
      13A    -11.258333    14A    -11.258318    15A    -11.258311
      16A    -11.258279    17A    -11.258277    18A    -11.258253
      19A    -11.258251    20A    -11.258247    21A    -11.258230
      22A    -11.258214    23A    -11.258207    24A    -11.258056
      25A    -11.257221    26A    -11.257173    27A    -11.257127
      28A    -11.257037    29A    -11.257014    30A    -11.256935
      31A    -11.256331    32A    -11.256272    33A    -11.256221
      34A    -11.256150    35A    -11.256131    36A    -11.256066
      37A    -11.252126    38A    -11.252120    39A    -11.252091
      40A    -11.252089    41A    -11.252086    42A    -11.252084
      43A    -11.251198    44A    -11.251188    45A    -11.251174
      46A    -11.251169    47A    -11.251165    48A    -11.251160
      49A    -11.250687    50A    -11.250681    51A    -11.250652
      52A    -11.250650    53A    -11.250647    54A    -11.250645
      55A     -1.243753    56A     -1.219519    57A     -1.219497
      58A     -1.189257    59A     -1.189236    60A     -1.180659
      61A     -1.157289    62A     -1.148688    63A     -1.135208
      64A     -1.135185    65A     -1.112925    66A     -1.112917
      67A     -1.082134    68A     -1.082122    69A     -1.078315
      70A     -1.065723    71A     -1.065712    72A     -1.039117
      73A     -1.023943    74A     -1.021468    75A     -1.021410
      76A     -1.017458    77A     -1.012548    78A     -0.986723
      79A     -0.986660    80A     -0.961613    81A     -0.961560
      82A     -0.894013    83A     -0.893992    84A     -0.887606
      85A     -0.885848    86A     -0.885809    87A     -0.881073
      88A     -0.881025    89A     -0.861626    90A     -0.837171
      91A     -0.817906    92A     -0.816283    93A     -0.811824
      94A     -0.811821    95A     -0.794425    96A     -0.794412
      97A     -0.746279    98A     -0.744546    99A     -0.733102
     100A     -0.733089   101A     -0.731907   102A     -0.731882
     103A     -0.716203   104A     -0.698698   105A     -0.698663
     106A     -0.693291   107A     -0.693247   108A     -0.660956
     109A     -0.652811   110A     -0.650821   111A     -0.649992
     112A     -0.649986   113A     -0.639080   114A     -0.639061
     115A     -0.629405   116A     -0.627211   117A     -0.627199
     118A     -0.606457   119A     -0.605597   120A     -0.601333
     121A     -0.599460   122A     -0.599392   123A     -0.593311
     124A     -0.590882   125A     -0.590848   126A     -0.585035
     127A     -0.576389   128A     -0.576316   129A     -0.567069
     130A     -0.567050   131A     -0.565643   132A     -0.565636
     133A     -0.558406   134A     -0.554579   135A     -0.554570
     136A     -0.538323   137A     -0.538320   138A     -0.538127
     139A     -0.538116   140A     -0.529421   141A     -0.528098
     142A     -0.522593   143A     -0.522558   144A     -0.500233
     145A     -0.495485   146A     -0.492952   147A     -0.487711
     148A     -0.484749   149A     -0.481447   150A     -0.481446
     151A     -0.470239   152A     -0.470232   153A     -0.450674
     154A     -0.450607   155A     -0.438920   156A     -0.438912
     157A     -0.404576   158A     -0.404569   159A     -0.403216
     160A     -0.375254   161A     -0.375246   162A     -0.348939
     163A     -0.337468   164A     -0.336424   165A     -0.336406
     166A     -0.310884   167A     -0.297932   168A     -0.284162
     169A     -0.284119   170A     -0.224729   171A     -0.224671

  @DF-RHF Final Energy: -2055.89736563825090

   => Energetics <=

    Nuclear Repulsion Energy =           6452.5568002797781446
    One-Electron Energy =              -15636.5634403636668139
    Two-Electron Energy =                7128.1092744456364017
    Total Energy =                      -2055.8973656382513582
 Dipole X            :         -0.0008905           -0.0000085           -0.0008990
 Dipole Y            :          0.0001805           -0.0028843           -0.0027038
 Dipole Z            :        221.9549331         -221.9499062            0.0050269
 Magnitude           :                                                    0.0057783

    SAPT Results
  --------------------------------------------------------------------------------------------------------
    Electrostatics                -89.76553913 [mEh]     -56.32872622 [kcal/mol]    -235.67939051 [kJ/mol]
      Elst10,r                    -89.76553913 [mEh]     -56.32872622 [kcal/mol]    -235.67939051 [kJ/mol]

    Exchange                      223.95711474 [mEh]     140.53521122 [kcal/mol]     587.99932375 [kJ/mol]
      Exch10                      223.95711474 [mEh]     140.53521122 [kcal/mol]     587.99932375 [kJ/mol]
      Exch10(S^2)                 218.65658503 [mEh]     137.20907861 [kcal/mol]     574.08278491 [kJ/mol]

    Induction                     -37.53937012 [mEh]     -23.55631039 [kcal/mol]     -98.55960266 [kJ/mol]
      Ind20,r                    -115.07395478 [mEh]     -72.20999681 [kcal/mol]    -302.12662665 [kJ/mol]
      Exch-Ind20,r                 88.66233495 [mEh]      55.63645515 [kcal/mol]     232.78292834 [kJ/mol]
      delta HF,r (2)              -11.12775029 [mEh]      -6.98276873 [kcal/mol]     -29.21590435 [kJ/mol]

    Dispersion                    -94.49995927 [mEh]     -59.29961971 [kcal/mol]    -248.10960888 [kJ/mol]
      Disp20                     -112.95111726 [mEh]     -70.87789615 [kcal/mol]    -296.55311750 [kJ/mol]
      Exch-Disp20                  18.45115799 [mEh]      11.57827644 [kcal/mol]      48.44350862 [kJ/mol]
      Disp20 (SS)                 -56.47555863 [mEh]     -35.43894808 [kcal/mol]    -148.27655875 [kJ/mol]
      Disp20 (OS)                 -56.47555863 [mEh]     -35.43894808 [kcal/mol]    -148.27655875 [kJ/mol]
      Exch-Disp20 (SS)             10.99103475 [mEh]       6.89697843 [kcal/mol]      28.85695776 [kJ/mol]
      Exch-Disp20 (OS)              7.46012324 [mEh]       4.68129801 [kcal/mol]      19.58655086 [kJ/mol]

  Total HF                         96.65220550 [mEh]      60.65017461 [kcal/mol]     253.76033058 [kJ/mol]
  Total SAPT0                       2.15224623 [mEh]       1.35055490 [kcal/mol]       5.65072170 [kJ/mol]

  Special recipe for scaled SAPT0 (see Manual):
    Electrostatics sSAPT0         -89.76553913 [mEh]     -56.32872622 [kcal/mol]    -235.67939051 [kJ/mol]
    Exchange sSAPT0               223.95711474 [mEh]     140.53521122 [kcal/mol]     587.99932375 [kJ/mol]
    Induction sSAPT0              -30.93391900 [mEh]     -19.41132723 [kcal/mol]     -81.21699314 [kJ/mol]
    Dispersion sSAPT0             -93.12532570 [mEh]     -58.43702412 [kcal/mol]    -244.50050894 [kJ/mol]
  Total sSAPT0                     10.13233092 [mEh]       6.35813364 [kcal/mol]      26.60243116 [kJ/mol]
  --------------------------------------------------------------------------------------------------------

*** Psi4 exiting successfully. Buy a developer a beer!
