                               Psi4 1.9 release

  ==> Input File <==

--------------------------------------------------------------------------
memory 80 GB # how much memory is available ! Depends on the nodes/cores !

molecule dimer {
# monomer A
-1 1    # Charge and multiplicity
B -1.977592e-04  2.742729e-04 3.900034
F  1.123153e-16  1.430594e-17 5.312819
F  1.147860e+00  6.757812e-01 3.428893
F  1.191806e-02 -1.332011e+00 3.429095
F -1.159666e+00  6.560735e-01 3.429174
--
# monomer B
0 1     # Charge and multiplicity
C   -3.66844126402057      7.80375217008252      0.00190004133558
C   -4.84759871934653      7.13124183134024     -0.00046653359696
C   -4.89495929917518      5.69633040353158     -0.00103944469517
C   -3.65374067877320      4.98073034095895      0.00662099703436
C   -2.40942512149445      7.11398103667468      0.00209438359570
C   -2.42547734410473      5.68112195090346     -0.00491050527438
C   -1.19474401643570      7.78614419430947      0.00356656413763
C   0.03795902893699      7.09942164575698      0.00139585983271
C   0.03033258741920      5.66948955970466     -0.00408752508301
C   -1.20098450790502      4.96927034791531      0.00488220885047
C   1.27795782581485      7.77285944319479      0.00277170839332
C   2.48535808472416      7.08769688523756      0.00049722048857
C   2.48612868491717      5.65477081024076     -0.00644052849921
C   1.25408291964399      4.95607811366431      0.00518741308898
C   3.75171459140595      7.76391215098033      0.00062407186893
C   4.92356605618520      7.07878077698995     -0.00143240883900
C   4.95560727132542      5.64344746336949     -0.00159282164606
C   3.70680153420475      4.94121020833308      0.00349873852374
H   -3.65852113775815      8.89082741913536      0.00358502958574
H   -1.18921332975660      8.87412108735996      0.00753844057883
H   1.28429423888630      8.86083343548850      0.00693053253426
H   3.75354208679975      8.85103527897216      0.00214659618464
H   5.86995870320703      7.61379483465560     -0.00235777588134
H   -5.78823170750226      7.67630221293400     -0.00202638095293
C   -6.09197395869619      4.99326001364347     -0.00291168518608
C   -6.12866148031747      3.58258016879823     -0.00171050815740
C   -3.66457974004527      3.56418217974434     -0.00463560277484
C   -4.89429820469869      2.86108077590057      0.00453338221034
C   -2.43733499489796      2.84761165708481      0.00719617576166
C   -1.20922785759670      3.54788693497833     -0.00648285103018
C   1.24714157216223      3.53468075142962     -0.00729145743546
C   0.01517603956900      2.83311183930540      0.00439272578912
C   2.46764517244071      2.82128997725533      0.00449278391269
C   3.70254947457969      3.52466015442405     -0.00899517692985
C   6.14498038638375      4.92757236613191     -0.00282626685777
C   6.16658835886151      3.51658447594213     -0.00065971342101
C   4.92460995845939      2.80840792535402      0.00587903281610
H   7.08990550964105      5.46688776622306     -0.00658814770723
H   -7.03104175110130      5.54268795285765     -0.00714490013730
C   -7.33969804112295      2.85841153457957     -0.00333767559888
C   -7.36488195805880      1.47032337158330     -0.00157213747140
C   -4.90350460894690      1.44442681216000     -0.00628840166334
C   -6.13225715261081      0.73993935705394      0.00600164231964
C   -3.67687480051673      0.72669714267312      0.00433931473643
C   -2.44565658606518      1.42964113326212     -0.00597039546461
C   -1.22360068130162      0.71532450163492      0.00545886906656
C   0.00763786931376      1.41738314923765      0.00392452278437
C   1.23121980774686      0.70211669058719     -0.01490206287210
C   2.46082110053113      1.40329203612573      0.00460244601878
C   3.68443025419614      0.68719842821222      0.00377365974158
C   4.91870890153864      1.39173456118907     -0.00862816189375
C   7.36980207796101      2.77948220318441     -0.00242013321349
C   7.38016266612146      1.39121750785509     -0.00087345036788
C   6.13979953912259      0.67411862320065      0.00545489144369
H   -8.27919079934664      3.40711804112415     -0.00763522772059
H   8.31511347147953      3.31811809662368     -0.00663070901292
C   -8.59175593758115      0.72483255304480     -0.00123170985383
C   -8.59902460370342     -0.63263980622873      0.00089141472904
C   -6.13981313911873     -0.67413663715361     -0.00609792660607
C   -7.38018411213749     -1.39126618958160      0.00131813493501
C   -4.91868448025621     -1.39175501803000      0.00624257154343
C   -3.68443829568458     -0.68723731573599     -0.00478966852105
C   -2.46081704024768     -1.40334517882457      0.00575341766833
C   -1.23116201232071     -0.70217386488055     -0.00636696112346
C   -0.00756962538737     -1.41741884941102      0.00108956317991
C   1.22364771588843     -0.71527537726392      0.01109518512883
C   2.44567064933149     -1.42964328900682     -0.00065482763106
C   3.67686670284649     -0.72670743155550     -0.00479541202602
C   6.13224884641929     -0.73997883984993     -0.00632338623858
C   4.90351914550401     -1.44445752054090      0.00751768830159
C   8.59901484869081      0.63260386666793     -0.00101133422380
C   8.59174548810050     -0.72485086719319      0.00072504603735
C   7.36486276438985     -1.47033266560598      0.00049486934466
H   -9.52830597181814      1.27684744919284     -0.00270163681798
H   9.54141097460619      1.17457248844457     -0.00206336648518
C   -7.36983790976868     -2.77954514593389      0.00312634335708
C   -4.92459910905015     -2.80843725734101     -0.00460528907921
C   -6.16662249566744     -3.51665219282533      0.00169655107992
C   -3.70251035970491     -3.52468154912026      0.00571878010666
C   -2.46764698511392     -2.82132596280400     -0.00632585824990
C   -0.01513347410770     -2.83314164539971     -0.00604426974092
C   -1.24712184122656     -3.53473217556300      0.00551968366725
C   1.20924506964357     -3.54791467864352      0.00805871345849
C   2.43733602215464     -2.84764173817541     -0.00608104485234
C   4.89430234377080     -2.86112296828604     -0.00526030478103
C   3.66461525504104     -3.56421984553201      0.00761911515957
C   6.12863901474565     -3.58258405771778      0.00096495711699
C   7.33967266469532     -2.85841330737039      0.00248018319869
H   -9.54144911125902     -1.17456346666430      0.00226083090216
H   9.52826186807155     -1.27691907390448      0.00197485379837
H   -8.31516504384864     -3.31814985321231      0.00729857188773
H   8.27915514249207     -3.40714078989363      0.00681973918158
C   -6.14499418870218     -4.92764727278338      0.00302254913999
C   -3.70678334799751     -4.94126171411716     -0.00679841894792
C   -4.95559005800169     -5.64349397349412      0.00116871569699
C   -2.48612132622665     -5.65478557440947      0.00614125209662
C   -1.25405833548005     -4.95612205000132     -0.00503435388927
C   1.20101257386816     -4.96928038819302     -0.00385322963129
C   -0.03033667441341     -5.66952030313900      0.00398997003238
C   3.65375010132847     -4.98074377541453     -0.00309522988330
C   2.42549269587528     -5.68117463552727      0.00628170066869
C   6.09196561781097     -4.99325796338655      0.00325918379042
C   4.89497644461045     -5.69634842095790      0.00202298796027
H   -7.08989238804069     -5.46699984223871      0.00742531082125
H   7.03105520920009     -5.54265853633254      0.00683896355417
C   -4.92354532219813     -7.07882109967734      0.00061394679214
C   -2.48534208823777     -7.08772807792913     -0.00189594564379
C   -3.75168589177895     -7.76394715763627     -0.00170126671874
C   -0.03794895698805     -7.09946487446944     -0.00168022049625
C   -1.27795610040136     -7.77290438466689     -0.00366491325785
C   2.40944432072629     -7.11402201200282     -0.00081701968533
C   1.19474993715296     -7.78618536556242     -0.00296931056689
C   4.84762105249800     -7.13126211057943      0.00168979497423
C   3.66847160587561     -7.80378799294376     -0.00065863938960
H   -5.86994035041618     -7.61383059804164      0.00215798365757
H   5.78824962538815     -7.67633218931421      0.00281691445618
H   -3.75352693944918     -8.85107156923607     -0.00353718114765
H   -1.28430440589466     -8.86087539249706     -0.00809229711623
H   1.18922157469537     -8.87416062058945     -0.00706194725726
H   3.65854661482387     -8.89086063405326     -0.00231318081200

    units angstrom      # Angstroms are the default
    no_reorient         # Geometry fixed, default
    symmetry c1         # C1 symmetry, default
}

set {
    scf_type DF         # Density fitting, faster than exact integrals
    freeze_core True    # Freeze core electrons
    basis jun-cc-pVDZ   # Jun-cc-pVDZ basis set, recommended for sSAPT0 in https://doi.org/10.1063/1.4867135
}

energy('ssapt0')        # Compute sSAPT0 energy, includes also SAPT0
--------------------------------------------------------------------------

  //              Dimer HF             //
    Molecular point group: c1
  Charge       = -1
  Multiplicity = 1
  Basis Set: JUN-CC-PVDZ
    Blend: JUN-CC-PVDZ
  Basis Set: (JUN-CC-PVDZ AUX)
    Blend: JUN-CC-PVDZ-JKFIT
  @DF-RHF Final Energy: -4073.11396008880456
    Total Energy =                      -4073.1139600888054701
 Dipole X            :          0.0011448           -0.0000548            0.0010900
 Dipole Y            :          0.0013635           -0.0002464            0.0011171
 Dipole Z            :         17.8463475          -23.2098590           -5.3635115
 Magnitude           :                                                    5.3635118
  //            Monomer A HF           //
    Molecular point group: c1
  Multiplicity = 1
  Basis Set: JUN-CC-PVDZ
    Blend: JUN-CC-PVDZ
  Basis Set: (JUN-CC-PVDZ AUX)
    Blend: JUN-CC-PVDZ-JKFIT
  @DF-RHF Final Energy:  -422.77311400966454
    Total Energy =                       -422.7731140096645390
  //            Monomer B HF           //
    Molecular point group: c1

    Geometry (in Angstrom), charge = 0, multiplicity = 1:

       Center              X                  Y                   Z               Mass
    ------------   -----------------  -----------------  -----------------  -----------------
      Gh(B)          -0.000201921932     0.000288800891     3.631416336367    11.009305360000
      Gh(F)          -0.000004162732     0.000014527991     5.044201336367    18.998403162730
      Gh(F)           1.147855837268     0.675795727991     3.160275336367    18.998403162730
      Gh(F)           0.011913897268    -1.331996472009     3.160477336367    18.998403162730
      Gh(F)          -1.159670162732     0.656088027991     3.160556336367    18.998403162730
         C           -3.668445426752     7.803766698073    -0.266717622298    12.000000000000
         C           -4.847602882078     7.131256359331    -0.269084197230    12.000000000000
         C           -4.894963461907     5.696344931522    -0.269657108329    12.000000000000
         C           -3.653744841505     4.980744868950    -0.261996666599    12.000000000000
         C           -2.409429284226     7.113995564665    -0.266523280038    12.000000000000
         C           -2.425481506836     5.681136478894    -0.273528168908    12.000000000000
         C           -1.194748179167     7.786158722300    -0.265051099496    12.000000000000
         C            0.037954866205     7.099436173748    -0.267221803801    12.000000000000
         C            0.030328424687     5.669504087695    -0.272705188716    12.000000000000
         C           -1.200988670637     4.969284875906    -0.263735454783    12.000000000000
         C            1.277953663083     7.772873971185    -0.265845955240    12.000000000000
         C            2.485353921992     7.087711413228    -0.268120443145    12.000000000000
         C            2.486124522185     5.654785338231    -0.275058192133    12.000000000000
         C            1.254078756912     4.956092641655    -0.263430250544    12.000000000000
         C            3.751710428674     7.763926678971    -0.267993591764    12.000000000000
         C            4.923561893453     7.078795304981    -0.270050072472    12.000000000000
         C            4.955603108594     5.643461991360    -0.270210485279    12.000000000000
         C            3.706797371473     4.941224736324    -0.265118925110    12.000000000000
         H           -3.658525300490     8.890841947126    -0.265032634048     1.007825032230
         H           -1.189217492488     8.874135615351    -0.261079223055     1.007825032230
         H            1.284290076155     8.860847963479    -0.261687131099     1.007825032230
         H            3.753537924068     8.851049806963    -0.266471067449     1.007825032230
         H            5.869954540475     7.613809362646    -0.270975439515     1.007825032230
         H           -5.788235870234     7.676316740925    -0.270644044586     1.007825032230
         C           -6.091978121428     4.993274541634    -0.271529348819    12.000000000000
         C           -6.128665643049     3.582594696789    -0.270328171791    12.000000000000
         C           -3.664583902777     3.564196707735    -0.273253266408    12.000000000000
         C           -4.894302367430     2.861095303891    -0.264084281423    12.000000000000
         C           -2.437339157630     2.847626185075    -0.261421487872    12.000000000000
         C           -1.209232020328     3.547901462969    -0.275100514664    12.000000000000
         C            1.247137409430     3.534695279420    -0.275909121069    12.000000000000
         C            0.015171876837     2.833126367296    -0.264224937844    12.000000000000
         C            2.467641009709     2.821304505246    -0.264124879721    12.000000000000
         C            3.702545311848     3.524674682415    -0.277612840563    12.000000000000
         C            6.144976223652     4.927586894122    -0.271443930491    12.000000000000
         C            6.166584196130     3.516599003933    -0.269277377054    12.000000000000
         C            4.924605795728     2.808422453345    -0.262738630817    12.000000000000
         H            7.089901346909     5.466902294214    -0.275205811341     1.007825032230
         H           -7.031045913833     5.542702480848    -0.275762563771     1.007825032230
         C           -7.339702203855     2.858426062570    -0.271955339232    12.000000000000
         C           -7.364886120791     1.470337899574    -0.270189801105    12.000000000000
         C           -4.903508771679     1.444441340151    -0.274906065297    12.000000000000
         C           -6.132261315343     0.739953885044    -0.262616021314    12.000000000000
         C           -3.676878963248     0.726711670664    -0.264278348897    12.000000000000
         C           -2.445660748797     1.429655661253    -0.274588059098    12.000000000000
         C           -1.223604844033     0.715339029625    -0.263158794567    12.000000000000
         C            0.007633706582     1.417397677228    -0.264693140849    12.000000000000
         C            1.231215645015     0.702131218578    -0.283519726505    12.000000000000
         C            2.460816937799     1.403306564116    -0.264015217615    12.000000000000
         C            3.684426091464     0.687212956203    -0.264844003892    12.000000000000
         C            4.918704738807     1.391749089180    -0.277245825527    12.000000000000
         C            7.369797915229     2.779496731175    -0.271037796847    12.000000000000
         C            7.380158503390     1.391232035846    -0.269491114001    12.000000000000
         C            6.139795376391     0.674133151191    -0.263162772190    12.000000000000
         H           -8.279194962078     3.407132569115    -0.276252891354     1.007825032230
         H            8.315109308748     3.318132624614    -0.275248372646     1.007825032230
         C           -8.591760100313     0.724847081035    -0.269849373487    12.000000000000
         C           -8.599028766435    -0.632625278238    -0.267726248904    12.000000000000
         C           -6.139817301850    -0.674122109163    -0.274715590239    12.000000000000
         C           -7.380188274869    -1.391251661591    -0.267299528698    12.000000000000
         C           -4.918688642988    -1.391740490039    -0.262375092090    12.000000000000
         C           -3.684442458416    -0.687222787745    -0.273407332154    12.000000000000
         C           -2.460821202979    -1.403330650834    -0.262864245965    12.000000000000
         C           -1.231166175052    -0.702159336890    -0.274984624757    12.000000000000
         C           -0.007573788119    -1.417404321420    -0.267528100453    12.000000000000
         C            1.223643553157    -0.715260849273    -0.257522478505    12.000000000000
         C            2.445666486600    -1.429628761016    -0.269272491264    12.000000000000
         C            3.676862540115    -0.726692903565    -0.273413075659    12.000000000000
         C            6.132244683688    -0.739964311859    -0.274941049872    12.000000000000
         C            4.903514982772    -1.444442992550    -0.261099975332    12.000000000000
         C            8.599010685959     0.632618394658    -0.269628997857    12.000000000000
         C            8.591741325369    -0.724836339203    -0.267892617596    12.000000000000
         C            7.364858601658    -1.470318137615    -0.268122794289    12.000000000000
         H           -9.528310134550     1.276861977183    -0.271319300451     1.007825032230
         H            9.541406811874     1.174587016435    -0.270681030119     1.007825032230
         C           -7.369842072500    -2.779530617943    -0.265491320276    12.000000000000
         C           -4.924603271782    -2.808422729350    -0.273222952713    12.000000000000
         C           -6.166626658399    -3.516637664835    -0.266921112553    12.000000000000
         C           -3.702514522437    -3.524667021130    -0.262898883527    12.000000000000
         C           -2.467651147846    -2.821311434813    -0.274943521883    12.000000000000
         C           -0.015137636839    -2.833127117409    -0.274661933374    12.000000000000
         C           -1.247126003958    -3.534717647572    -0.263097979966    12.000000000000
         C            1.209240906912    -3.547900150653    -0.260558950175    12.000000000000
         C            2.437331859423    -2.847627210185    -0.274698708486    12.000000000000
         C            4.894298181039    -2.861108440295    -0.273877968414    12.000000000000
         C            3.664611092309    -3.564205317541    -0.260998548474    12.000000000000
         C            6.128634852014    -3.582569529727    -0.267652706516    12.000000000000
         C            7.339668501964    -2.858398779380    -0.266137480435    12.000000000000
         H           -9.541453273991    -1.174548938674    -0.266356832731     1.007825032230
         H            9.528257705340    -1.276904545914    -0.266642809835     1.007825032230
         H           -8.315169206580    -3.318135325222    -0.261319091746     1.007825032230
         H            8.279150979760    -3.407126261903    -0.261797924452     1.007825032230
         C           -6.144998351434    -4.927632744793    -0.265595114493    12.000000000000
         C           -3.706787510729    -4.941247186127    -0.275416082581    12.000000000000
         C           -4.955594220733    -5.643479445504    -0.267448947936    12.000000000000
         C           -2.486125488958    -5.654771046419    -0.262476411537    12.000000000000
         C           -1.254062498212    -4.956107522011    -0.273652017523    12.000000000000
         C            1.201008411136    -4.969265860202    -0.272470893265    12.000000000000
         C           -0.030340837145    -5.669505775148    -0.264627693601    12.000000000000
         C            3.653745938597    -4.980729247424    -0.271712893517    12.000000000000
         C            2.425488533144    -5.681160107537    -0.262335962965    12.000000000000
         C            6.091961455079    -4.993243435396    -0.265358479843    12.000000000000
         C            4.894972281879    -5.696333892967    -0.266594675673    12.000000000000
         H           -7.089896550772    -5.466985314248    -0.261192352812     1.007825032230
         H            7.031051046468    -5.542644008342    -0.261778700079     1.007825032230
         C           -4.923549484930    -7.078806571687    -0.268003716841    12.000000000000
         C           -2.485346250970    -7.087713549939    -0.270513609277    12.000000000000
         C           -3.751690054511    -7.763932629646    -0.270318930352    12.000000000000
         C           -0.037953119720    -7.099450346479    -0.270297884130    12.000000000000
         C           -1.277960263133    -7.772889856676    -0.272282576891    12.000000000000
         C            2.409440157995    -7.114007484012    -0.269434683319    12.000000000000
         C            1.194745774421    -7.786170837572    -0.271586974200    12.000000000000
         C            4.847616889766    -7.131247582589    -0.266927868659    12.000000000000
         C            3.668467443144    -7.803773464953    -0.269276303023    12.000000000000
         H           -5.869944513148    -7.613816070051    -0.266459679976     1.007825032230
         H            5.788245462656    -7.676317661324    -0.265800749177     1.007825032230
         H           -3.753531102181    -8.851057041246    -0.272154844781     1.007825032230
         H           -1.284308568626    -8.860860864507    -0.276709960750     1.007825032230
         H            1.189217411964    -8.874146092599    -0.275679610891     1.007825032230
         H            3.658542452092    -8.890846106063    -0.270930844445     1.007825032230

  Charge       = 0
  Multiplicity = 1
  Basis Set: JUN-CC-PVDZ
    Blend: JUN-CC-PVDZ
  Basis Set: (JUN-CC-PVDZ AUX)
    Blend: JUN-CC-PVDZ-JKFIT

    Orbital Energies [Eh]
    ---------------------

    Doubly Occupied:

       1A    -11.264097     2A    -11.263748     3A    -11.263746
       4A    -11.263342     5A    -11.263340     6A    -11.263301
       7A    -11.263154     8A    -11.263139     9A    -11.263132
      10A    -11.262907    11A    -11.262781    12A    -11.262777
      13A    -11.262286    14A    -11.262281    15A    -11.262244
      16A    -11.262239    17A    -11.262134    18A    -11.262125
      19A    -11.262085    20A    -11.262040    21A    -11.262037
      22A    -11.261926    23A    -11.261920    24A    -11.261769
      25A    -11.261759    26A    -11.261740    27A    -11.261734
      28A    -11.261693    29A    -11.261684    30A    -11.261586
      31A    -11.261569    32A    -11.261563    33A    -11.261561
      34A    -11.261540    35A    -11.261537    36A    -11.261520
      37A    -11.261339    38A    -11.261330    39A    -11.261324
      40A    -11.261318    41A    -11.261312    42A    -11.261308
      43A    -11.261295    44A    -11.261279    45A    -11.261275
      46A    -11.261249    47A    -11.261246    48A    -11.261239
      49A    -11.261071    50A    -11.261045    51A    -11.261038
      52A    -11.260971    53A    -11.260967    54A    -11.260912
      55A    -11.259921    56A    -11.259907    57A    -11.259904
      58A    -11.259876    59A    -11.259873    60A    -11.259857
      61A    -11.259292    62A    -11.259266    63A    -11.259263
      64A    -11.259210    65A    -11.259208    66A    -11.259178
      67A    -11.258923    68A    -11.258905    69A    -11.258902
      70A    -11.258875    71A    -11.258873    72A    -11.258861
      73A    -11.254531    74A    -11.254531    75A    -11.254526
      76A    -11.254524    77A    -11.254522    78A    -11.254520
      79A    -11.253661    80A    -11.253660    81A    -11.253655
      82A    -11.253653    83A    -11.253652    84A    -11.253650
      85A    -11.253576    86A    -11.253575    87A    -11.253571
      88A    -11.253568    89A    -11.253567    90A    -11.253566
      91A    -11.253059    92A    -11.253059    93A    -11.253054
      94A    -11.253052    95A    -11.253050    96A    -11.253048
      97A     -1.253929    98A     -1.238994    99A     -1.238992
     100A     -1.220465   101A     -1.220460   102A     -1.215426
     103A     -1.201043   104A     -1.195611   105A     -1.188132
     106A     -1.188128   107A     -1.173770   108A     -1.173767
     109A     -1.155621   110A     -1.155619   111A     -1.152701
     112A     -1.144729   113A     -1.144726   114A     -1.128563
     115A     -1.114709   116A     -1.113168   117A     -1.112471
     118A     -1.112455   119A     -1.111625   120A     -1.088425
     121A     -1.088410   122A     -1.076966   123A     -1.076964
     124A     -1.067611   125A     -1.067582   126A     -1.064961
     127A     -1.046801   128A     -1.046794   129A     -1.040477
     130A     -1.038739   131A     -1.038739   132A     -1.025235
     133A     -1.021371   134A     -1.021319   135A     -1.007184
     136A     -1.006811   137A     -1.003796   138A     -1.000482
     139A     -1.000435   140A     -0.991079   141A     -0.970986
     142A     -0.970938   143A     -0.955884   144A     -0.955829
     145A     -0.905579   146A     -0.905555   147A     -0.905536
     148A     -0.905514   149A     -0.904314   150A     -0.892356
     151A     -0.892297   152A     -0.890356   153A     -0.890298
     154A     -0.889451   155A     -0.872220   156A     -0.869061
     157A     -0.851542   158A     -0.847859   159A     -0.847838
     160A     -0.845589   161A     -0.843013   162A     -0.834565
     163A     -0.834552   164A     -0.828119   165A     -0.828115
     166A     -0.784547   167A     -0.784535   168A     -0.783654
     169A     -0.783628   170A     -0.782283   171A     -0.782263
     172A     -0.782024   173A     -0.766992   174A     -0.760780
     175A     -0.750560   176A     -0.733487   177A     -0.727069
     178A     -0.727055   179A     -0.725079   180A     -0.724541
     181A     -0.724522   182A     -0.718474   183A     -0.713762
     184A     -0.713755   185A     -0.699572   186A     -0.699559
     187A     -0.686104   188A     -0.685958   189A     -0.685954
     190A     -0.682174   191A     -0.682164   192A     -0.678762
     193A     -0.653618   194A     -0.650866   195A     -0.650836
     196A     -0.649799   197A     -0.649783   198A     -0.649566
     199A     -0.640912   200A     -0.640884   201A     -0.640088
     202A     -0.639164   203A     -0.636009   204A     -0.635982
     205A     -0.629137   206A     -0.617741   207A     -0.615304
     208A     -0.615283   209A     -0.608800   210A     -0.608793
     211A     -0.599123   212A     -0.599086   213A     -0.598734
     214A     -0.598599   215A     -0.598576   216A     -0.598018
     217A     -0.595066   218A     -0.595054   219A     -0.594716
     220A     -0.594217   221A     -0.591944   222A     -0.591941
     223A     -0.587372   224A     -0.577797   225A     -0.577787
     226A     -0.575669   227A     -0.575666   228A     -0.573379
     229A     -0.569580   230A     -0.568124   231A     -0.568101
     232A     -0.566745   233A     -0.566734   234A     -0.560913
     235A     -0.558704   236A     -0.558685   237A     -0.558427
     238A     -0.554361   239A     -0.550546   240A     -0.547475
     241A     -0.544259   242A     -0.535029   243A     -0.534992
     244A     -0.533530   245A     -0.533508   246A     -0.528074
     247A     -0.528058   248A     -0.527771   249A     -0.517145
     250A     -0.517111   251A     -0.515346   252A     -0.515340
     253A     -0.509639   254A     -0.509623   255A     -0.498023
     256A     -0.496443   257A     -0.496416   258A     -0.493802
     259A     -0.493788   260A     -0.489436   261A     -0.481448
     262A     -0.477412   263A     -0.477409   264A     -0.473989
     265A     -0.469430   266A     -0.466516   267A     -0.466511
     268A     -0.458793   269A     -0.446664   270A     -0.446604
     271A     -0.441030   272A     -0.440764   273A     -0.440740
     274A     -0.434678   275A     -0.433904   276A     -0.407365
     277A     -0.407341   278A     -0.386395   279A     -0.386346
     280A     -0.385724   281A     -0.385723   282A     -0.383735
     283A     -0.354303   284A     -0.354286   285A     -0.350646
     286A     -0.338103   287A     -0.335586   288A     -0.335513
     289A     -0.332704   290A     -0.332697   291A     -0.307039
     292A     -0.301929   293A     -0.301867   294A     -0.300842
     295A     -0.286166   296A     -0.256464   297A     -0.253483
     298A     -0.253429   299A     -0.204255   300A     -0.204166

  @DF-RHF Final Energy: -3650.34007456756899

   => Energetics <=

    Nuclear Repulsion Energy =          15611.4211649754324753
    One-Electron Energy =              -36072.1474527399695944
    Two-Electron Energy =               16810.3862131969690381
    Total Energy =                      -3650.3400745675680810
 Dipole X            :         -0.0002641            0.0002304           -0.0000336
 Dipole Y            :          0.0012578           -0.0013052           -0.0000474
 Dipole Z            :        304.5635138         -304.5648981           -0.0013843
 Magnitude           :                                                    0.0013855

    SAPT Results
  --------------------------------------------------------------------------------------------------------
    Electrostatics                 11.39523116 [mEh]       7.15061551 [kcal/mol]      29.91817529 [kJ/mol]
      Elst10,r                     11.39523116 [mEh]       7.15061551 [kcal/mol]      29.91817529 [kJ/mol]

    Exchange                        3.16561061 [mEh]       1.98645065 [kcal/mol]       8.31130951 [kJ/mol]
      Exch10                        3.16561061 [mEh]       1.98645065 [kcal/mol]       8.31130951 [kJ/mol]
      Exch10(S^2)                   3.16527839 [mEh]       1.98624218 [kcal/mol]       8.31043727 [kJ/mol]

    Induction                     -15.33235334 [mEh]      -9.62119698 [kcal/mol]     -40.25508815 [kJ/mol]
      Ind20,r                     -15.92586813 [mEh]      -9.99363313 [kcal/mol]     -41.81336100 [kJ/mol]
      Exch-Ind20,r                  0.80074331 [mEh]       0.50247401 [kcal/mol]       2.10235128 [kJ/mol]
      delta HF,r (2)               -0.20722853 [mEh]      -0.13003786 [kcal/mol]      -0.54407842 [kJ/mol]

    Dispersion                     -7.39313922 [mEh]      -4.63926490 [kcal/mol]     -19.41068434 [kJ/mol]
      Disp20                       -7.94388237 [mEh]      -4.98486145 [kcal/mol]     -20.85666030 [kJ/mol]
      Exch-Disp20                   0.55074316 [mEh]       0.34559655 [kcal/mol]       1.44597596 [kJ/mol]
      Disp20 (SS)                  -3.97194119 [mEh]      -2.49243072 [kcal/mol]     -10.42833015 [kJ/mol]
      Disp20 (OS)                  -3.97194119 [mEh]      -2.49243072 [kcal/mol]     -10.42833015 [kJ/mol]
      Exch-Disp20 (SS)              0.33995656 [mEh]       0.21332596 [kcal/mol]       0.89255583 [kJ/mol]
      Exch-Disp20 (OS)              0.21078659 [mEh]       0.13227058 [kcal/mol]       0.55342012 [kJ/mol]

  Total HF                         -0.77151157 [mEh]      -0.48413082 [kcal/mol]      -2.02560335 [kJ/mol]
  Total SAPT0                      -8.16465079 [mEh]      -5.12339572 [kcal/mol]     -21.43628769 [kJ/mol]

  Special recipe for scaled SAPT0 (see Manual):
    Electrostatics sSAPT0          11.39523116 [mEh]       7.15061551 [kcal/mol]      29.91817529 [kJ/mol]
    Exchange sSAPT0                 3.16561061 [mEh]       1.98645065 [kcal/mol]       8.31130951 [kJ/mol]
    Induction sSAPT0              -15.33210118 [mEh]      -9.62103874 [kcal/mol]     -40.25442611 [kJ/mol]
    Dispersion sSAPT0              -7.39296579 [mEh]      -4.63915607 [kcal/mol]     -19.41022900 [kJ/mol]
  Total sSAPT0                     -8.16422520 [mEh]      -5.12312866 [kcal/mol]     -21.43517030 [kJ/mol]
  --------------------------------------------------------------------------------------------------------

*** Psi4 exiting successfully. Buy a developer a beer!
