                               Psi4 1.9 release

  ==> Input File <==

--------------------------------------------------------------------------
memory 32 GB # how much memory is available ! Depends on the nodes/cores !

molecule dimer {
# monomer A
+1 1    # Charge and multiplicity
C  0.680067 1.417258 -5.415929
C -0.680504 1.419286 -5.415545
N -1.085635 1.420284 -4.097221
C  0.000108 1.423560 -3.315820
C -2.477365 1.469690 -3.629242
N  1.085222 1.420284 -4.097221
H  1.385146 1.409430 -6.233368
H -1.385302 1.419096 -6.233214
H -0.000009 1.425307 -2.234731
C  2.478117 1.403392 -3.632123
H  2.490592 1.430737 -2.541870
H  2.967028 0.489946 -3.979299
H  3.001428 2.278875 -4.023595
H -2.857359 2.491761 -3.709201
H -3.082679 0.799606 -4.242306
H -2.518128 1.142706 -2.589294
--
# monomer B
0 1     # Charge and multiplicity
C   1.22531237526482      0.70753866091955      0.00613762728373
C   1.22532433589282     -0.70753852257020     -0.00619318228664
C   -0.00000567409046      1.41496628609039     -0.00672680580738
C   2.45644923379077      1.41832825917820      0.00902448468363
C   0.00001130712078     -1.41497612663474      0.00347275151708
C   -1.22530046906674      0.70754574598412      0.00838914760619
C   2.45643823516184     -1.41832293188077     -0.00843833914343
C   -0.00000085313587      2.83680140328112     -0.00913035594137
C   3.68182717731192      0.70931832800114     -0.00808954934571
C   2.45512052870677      2.83422403348893     -0.00819210630633
C   3.68182158506039     -0.70933346742900      0.00798293467272
C   -1.22531311884624     -0.70752714354401     -0.00512042085974
C   1.22670006104402      3.54346985599427      0.00816696660346
C   0.00000526469929     -2.83678176723568      0.00832091913869
C   -2.45643555300670      1.41831729028492      0.00842454345199
C   2.45512389762097     -2.83422965658853      0.00783102630520
C   -1.22671388474763      3.54346943575023      0.00827029982280
C   4.91451777504333      1.42717324448953     -0.00160886631602
C   3.69315067131765      3.54279566454522     -0.00155906667985
C   -2.45643712022637     -1.41831290883911     -0.00846337726810
C   1.22670532178455     -3.54347386990643     -0.00780316414624
C   -2.45512491866593      2.83421703463423     -0.00818572995999
C   4.91452486062398     -1.42718653794377      0.00136387641845
C   1.22142509354026      4.97013443726031      0.00150231067809
C   4.89300870916237      2.82518837202648     -0.00039219795739
C   -1.22669652864725     -3.54347062507680     -0.00753595973677
C   -3.68181849668397      0.70932533873199     -0.00807686886569
C   3.69314758099218     -3.54280096939050      0.00148176697923
C   -1.22143177215231      4.97012866986289      0.00168580605083
C   6.13477145276790      0.68054831910577     -0.00083909176631
C   3.65678936045204      4.97295361556775     -0.00065042889723
C   -2.45512642789169     -2.83421472106065      0.00758666850712
C   -3.68181869921921     -0.70932533146830      0.00810055625144
C   4.89301309775526     -2.82519973363176      0.00021895393805
C   -0.00000059327114      5.65044773803267      0.00045449734393
C   6.13477559217374     -0.68055448207492      0.00042622874941
C   2.47813196269732      5.65357712333155      0.00063835075260
C   1.22142288457925     -4.97012668293268     -0.00129718634452
C   -3.69316190412301      3.54279732619245     -0.00139355922051
C   -1.22142804110313     -4.97011793159564     -0.00140994817719
C   -4.91452132810043      1.42717581899491     -0.00153192130862
C   3.65678749952045     -4.97295485423912      0.00080007163680
C   -2.47813805026426      5.65357479452875      0.00092287576113
C   -3.69314125872231     -3.54278984697859      0.00136564082345
C   -4.91451200321153     -1.42718062802730      0.00139857359209
C   -0.00000552908399     -5.65043791501335      0.00005899322272
C   -4.89302000425900      2.82518897091939     -0.00040227981744
C   2.47812647313991     -5.65357317188818     -0.00029052915548
C   -3.65679823041642      4.97295655404175     -0.00047374852278
C   -4.89299899901461     -2.82519139505969      0.00006491824035
C   -2.47812801824129     -5.65356579800621     -0.00056571680280
C   -6.13477002348955      0.68054913825639     -0.00086464346868
C   -3.65678835334731     -4.97294365097028      0.00058578382008
C   -6.13476456307132     -0.68055354348201      0.00040575295444
H   5.83528897565761      3.36927626695423      0.00396712770529
H   7.07385965258860      1.22821762089947     -0.00037744837300
H   4.60066374401555      5.51238117445323     -0.00014522814529
H   5.83528386714679     -3.36930568472863     -0.00423551337640
H   -0.00001167146422      6.73853104613662     -0.00389474766392
H   7.07386165167227     -1.22822657074368     -0.00008250934481
H   2.47331421164041      6.74068466339473      0.00017162982210
H   4.60066897122302     -5.51237575717576      0.00039007446835
H   -2.47331820069565      6.74068209160650      0.00047297644710
H   -0.00000978838621     -6.73852780445195      0.00458867820736
H   -5.83530143450167      3.36927132229595      0.00410314985360
H   2.47330840367253     -6.74068500242887      0.00027980126949
H   -4.60067436136587      5.51237839860371      0.00002010017831
H   -5.83527902699321     -3.36928859177951     -0.00451481925734
H   -2.47329986759855     -6.74067870613986     -0.00016951527498
H   -7.07385728692578      1.22822084484047     -0.00046143985387
H   -4.60067330624313     -5.51236229778631      0.00021776644566
H   -7.07385645456741     -1.22822025997701     -0.00017736581114

    units angstrom      # Angstroms are the default
    no_reorient         # Geometry fixed, default
    symmetry c1         # C1 symmetry, default
}

set {
    scf_type DF         # Density fitting, faster than exact integrals
    freeze_core True    # Freeze core electrons
    basis jun-cc-pVDZ   # Jun-cc-pVDZ basis set, recommended for sSAPT0 in https://doi.org/10.1063/1.4867135
}

energy('ssapt0')        # Compute sSAPT0 energy, includes also SAPT0
--------------------------------------------------------------------------

  //              Dimer HF             //
    Molecular point group: c1
  Charge       = 1
  Multiplicity = 1
  Basis Set: JUN-CC-PVDZ
    Blend: JUN-CC-PVDZ
  Basis Set: (JUN-CC-PVDZ AUX)
    Blend: JUN-CC-PVDZ-JKFIT
  @DF-RHF Final Energy: -2359.20835065881147
    Total Energy =                      -2359.2083506588114687
 Dipole X            :         -0.0013019            0.0006313           -0.0006706
 Dipole Y            :         -6.1270228            7.4856329            1.3586101
 Dipole Z            :         15.2484584          -20.0064651           -4.7580067
 Magnitude           :                                                    4.9481764
  //            Monomer A HF           //
    Molecular point group: c1
  Multiplicity = 1
  Basis Set: JUN-CC-PVDZ
    Blend: JUN-CC-PVDZ
  Basis Set: (JUN-CC-PVDZ AUX)
    Blend: JUN-CC-PVDZ-JKFIT
  @DF-RHF Final Energy:  -303.29829056370954
    Total Energy =                       -303.2982905637095428
  //            Monomer B HF           //
    Molecular point group: c1

    Geometry (in Angstrom), charge = 0, multiplicity = 1:

       Center              X                  Y                   Z               Mass
    ------------   -----------------  -----------------  -----------------  -----------------
      Gh(C)           0.680066520158     1.235968212970    -4.881717039996    12.000000000000
      Gh(C)          -0.680504479842     1.237996212970    -4.881333039996    12.000000000000
      Gh(N)          -1.085635479842     1.238994212970    -3.563009039996    14.003074004430
      Gh(C)           0.000107520158     1.242270212970    -2.781608039996    12.000000000000
      Gh(C)          -2.477365479842     1.288400212970    -3.095030039996    12.000000000000
      Gh(N)           1.085221520158     1.238994212970    -3.563009039996    14.003074004430
      Gh(H)           1.385145520158     1.228140212970    -5.699156039996     1.007825032230
      Gh(H)          -1.385302479842     1.237806212970    -5.699002039996     1.007825032230
      Gh(H)          -0.000009479842     1.244017212970    -1.700519039996     1.007825032230
      Gh(C)           2.478116520158     1.222102212970    -3.097911039996    12.000000000000
      Gh(H)           2.490591520158     1.249447212970    -2.007658039996     1.007825032230
      Gh(H)           2.967027520158     0.308656212970    -3.445087039996     1.007825032230
      Gh(H)           3.001427520158     2.097585212970    -3.489383039996     1.007825032230
      Gh(H)          -2.857359479842     2.310471212970    -3.174989039996     1.007825032230
      Gh(H)          -3.082679479842     0.618316212970    -3.708094039996     1.007825032230
      Gh(H)          -2.518128479842     0.961416212970    -2.055082039996     1.007825032230
         C            1.225311895423     0.526248873889     0.540349587288    12.000000000000
         C            1.225323856051    -0.888828309601     0.528018777718    12.000000000000
         C           -0.000006153932     1.233676499060     0.527485154197    12.000000000000
         C            2.456448753949     1.237038472148     0.543236444688    12.000000000000
         C            0.000010827279    -1.596265913665     0.537684711522    12.000000000000
         C           -1.225300948908     0.526255958954     0.542601107611    12.000000000000
         C            2.456437755320    -1.599612718911     0.525773620861    12.000000000000
         C           -0.000001332978     2.655511616251     0.525081604063    12.000000000000
         C            3.681826697470     0.528028540971     0.526122410659    12.000000000000
         C            2.455120048865     2.652934246459     0.526019853698    12.000000000000
         C            3.681821105219    -0.890623254459     0.542194894677    12.000000000000
         C           -1.225313598688    -0.888816930574     0.529091539145    12.000000000000
         C            1.226699581202     3.362180068964     0.542378926608    12.000000000000
         C            0.000004784858    -3.018071554266     0.542532879143    12.000000000000
         C           -2.456436032848     1.237027503255     0.542636503456    12.000000000000
         C            2.455123417779    -3.015519443619     0.542042986310    12.000000000000
         C           -1.226714364589     3.362179648720     0.542482259827    12.000000000000
         C            4.914517295202     1.245883457459     0.532603093688    12.000000000000
         C            3.693150191476     3.361505877515     0.532652893325    12.000000000000
         C           -2.456437600068    -1.599602695869     0.525748582736    12.000000000000
         C            1.226704841943    -3.724763656937     0.526408795858    12.000000000000
         C           -2.455125398508     2.652927247604     0.526026230044    12.000000000000
         C            4.914524380782    -1.608476324974     0.535575836423    12.000000000000
         C            1.221424613699     4.788844650230     0.535714270683    12.000000000000
         C            4.893008229321     2.643898584996     0.533819762047    12.000000000000
         C           -1.226697008489    -3.724760412107     0.526676000268    12.000000000000
         C           -3.681818976526     0.528035551702     0.526135091139    12.000000000000
         C            3.693147101150    -3.724090756421     0.535693726984    12.000000000000
         C           -1.221432251994     4.788838882833     0.535897766055    12.000000000000
         C            6.134770972926     0.499258532075     0.533372868238    12.000000000000
         C            3.656788880610     4.791663828537     0.533561531107    12.000000000000
         C           -2.455126907733    -3.015504508091     0.541798628512    12.000000000000
         C           -3.681819179061    -0.890615118499     0.542312516256    12.000000000000
         C            4.893012617914    -3.006489520662     0.534430913943    12.000000000000
         C           -0.000001073113     5.469157951002     0.534666457348    12.000000000000
         C            6.134775112332    -0.861844269105     0.534638188754    12.000000000000
         C            2.478131482856     5.472287336301     0.534850310757    12.000000000000
         C            1.221422404738    -5.151416469963     0.532914773660    12.000000000000
         C           -3.693162383965     3.361507539162     0.532818400784    12.000000000000
         C           -1.221428520945    -5.151407718626     0.532802011827    12.000000000000
         C           -4.914521807942     1.245886031965     0.532680038696    12.000000000000
         C            3.656787019679    -5.154244641269     0.535012031641    12.000000000000
         C           -2.478138530106     5.472285007498     0.535134835766    12.000000000000
         C           -3.693141738564    -3.724079634009     0.535577600828    12.000000000000
         C           -4.914512483053    -1.608470415058     0.535610533597    12.000000000000
         C           -0.000006008926    -5.831727702044     0.534270953227    12.000000000000
         C           -4.893020484101     2.643899183889     0.533809680187    12.000000000000
         C            2.478125993298    -5.834862958919     0.533921430849    12.000000000000
         C           -3.656798710258     4.791666767011     0.533738211482    12.000000000000
         C           -4.892999478856    -3.006481182090     0.534276878245    12.000000000000
         C           -2.478128498083    -5.834855585037     0.533646243202    12.000000000000
         C           -6.134770503331     0.499259351226     0.533347316536    12.000000000000
         C           -3.656788833189    -5.154233438001     0.534797743825    12.000000000000
         C           -6.134765042913    -0.861843330512     0.534617712959    12.000000000000
         H            5.835288495816     3.187986479924     0.538179087710     1.007825032230
         H            7.073859172747     1.046927833869     0.533834511631     1.007825032230
         H            4.600663264174     5.331091387423     0.534066731859     1.007825032230
         H            5.835283387305    -3.550595471759     0.529976446628     1.007825032230
         H           -0.000012151306     6.557241259106     0.530317212341     1.007825032230
         H            7.073861171831    -1.409516357774     0.534129450660     1.007825032230
         H            2.473313731799     6.559394876364     0.534383589827     1.007825032230
         H            4.600668491381    -5.693665544206     0.534602034473     1.007825032230
         H           -2.473318680537     6.559392304576     0.534684936452     1.007825032230
         H           -0.000010268228    -6.919817591482     0.538800638212     1.007825032230
         H           -5.835301914343     3.187981535266     0.538315109858     1.007825032230
         H            2.473307923831    -6.921974789459     0.534491761274     1.007825032230
         H           -4.600674841208     5.331088611573     0.534232060183     1.007825032230
         H           -5.835279506835    -3.550578378810     0.529697140747     1.007825032230
         H           -2.473300347440    -6.921968493170     0.534042444730     1.007825032230
         H           -7.073857766768     1.046931057810     0.533750520151     1.007825032230
         H           -4.600673786085    -5.693652084817     0.534429726450     1.007825032230
         H           -7.073856934409    -1.409510047007     0.534034594193     1.007825032230

  Charge       = 0
  Multiplicity = 1
  Basis Set: JUN-CC-PVDZ
    Blend: JUN-CC-PVDZ
  Basis Set: (JUN-CC-PVDZ AUX)
    Blend: JUN-CC-PVDZ-JKFIT

    Orbital Energies [Eh]
    ---------------------

    Doubly Occupied:

       1A    -11.260599     2A    -11.260115     3A    -11.260088
       4A    -11.259432     5A    -11.259374     6A    -11.259183
       7A    -11.259009     8A    -11.258922     9A    -11.258872
      10A    -11.258584    11A    -11.258543    12A    -11.258465
      13A    -11.258408    14A    -11.258402    15A    -11.258396
      16A    -11.258366    17A    -11.258361    18A    -11.258346
      19A    -11.258340    20A    -11.258327    21A    -11.258317
      22A    -11.258270    23A    -11.258240    24A    -11.257962
      25A    -11.257274    26A    -11.257224    27A    -11.257194
      28A    -11.257085    29A    -11.257075    30A    -11.256987
      31A    -11.256370    32A    -11.256307    33A    -11.256289
      34A    -11.256193    35A    -11.256191    36A    -11.256122
      37A    -11.252226    38A    -11.252223    39A    -11.252192
      40A    -11.252184    41A    -11.252169    42A    -11.252164
      43A    -11.251338    44A    -11.251328    45A    -11.251315
      46A    -11.251303    47A    -11.251300    48A    -11.251266
      49A    -11.250788    50A    -11.250784    51A    -11.250752
      52A    -11.250745    53A    -11.250730    54A    -11.250724
      55A     -1.243899    56A     -1.219668    57A     -1.219657
      58A     -1.189402    59A     -1.189391    60A     -1.180784
      61A     -1.157425    62A     -1.148841    63A     -1.135343
      64A     -1.135322    65A     -1.113061    66A     -1.113056
      67A     -1.082278    68A     -1.082269    69A     -1.078445
      70A     -1.065853    71A     -1.065846    72A     -1.039253
      73A     -1.024111    74A     -1.021604    75A     -1.021551
      76A     -1.017594    77A     -1.012670    78A     -0.986873
      79A     -0.986816    80A     -0.961744    81A     -0.961691
      82A     -0.894145    83A     -0.894125    84A     -0.887760
      85A     -0.886006    86A     -0.885964    87A     -0.881232
      88A     -0.881186    89A     -0.861757    90A     -0.837284
      91A     -0.818060    92A     -0.816447    93A     -0.811972
      94A     -0.811968    95A     -0.794550    96A     -0.794539
      97A     -0.746452    98A     -0.744692    99A     -0.733254
     100A     -0.733242   101A     -0.732038   102A     -0.732017
     103A     -0.716336   104A     -0.698832   105A     -0.698804
     106A     -0.693438   107A     -0.693402   108A     -0.661089
     109A     -0.652947   110A     -0.650989   111A     -0.650115
     112A     -0.650107   113A     -0.639220   114A     -0.639203
     115A     -0.629555   116A     -0.627356   117A     -0.627347
     118A     -0.606417   119A     -0.605695   120A     -0.601491
     121A     -0.599599   122A     -0.599542   123A     -0.593467
     124A     -0.591046   125A     -0.591018   126A     -0.585153
     127A     -0.576439   128A     -0.576335   129A     -0.567191
     130A     -0.567169   131A     -0.565791   132A     -0.565779
     133A     -0.558557   134A     -0.554706   135A     -0.554701
     136A     -0.538452   137A     -0.538449   138A     -0.538181
     139A     -0.538162   140A     -0.529561   141A     -0.528124
     142A     -0.522729   143A     -0.522703   144A     -0.500363
     145A     -0.495557   146A     -0.493091   147A     -0.487788
     148A     -0.484906   149A     -0.481593   150A     -0.481591
     151A     -0.470286   152A     -0.470271   153A     -0.450837
     154A     -0.450768   155A     -0.439012   156A     -0.438990
     157A     -0.404679   158A     -0.404659   159A     -0.403291
     160A     -0.375349   161A     -0.375346   162A     -0.349044
     163A     -0.337514   164A     -0.336452   165A     -0.336408
     166A     -0.311023   167A     -0.298020   168A     -0.284256
     169A     -0.284199   170A     -0.224821   171A     -0.224762

  @DF-RHF Final Energy: -2055.89524594159684

   => Energetics <=

    Nuclear Repulsion Energy =           6452.5568002797781446
    One-Electron Energy =              -15636.5241005079915340
    Two-Electron Energy =                7128.0720542866174583
    Total Energy =                      -2055.8952459415968406
 Dipole X            :          0.0002651           -0.0000085            0.0002566
 Dipole Y            :        117.1723618         -117.1648546            0.0075072
 Dipole Z            :       -345.2497617          345.2524467            0.0026850
 Magnitude           :                                                    0.0079771

    SAPT Results
  --------------------------------------------------------------------------------------------------------
    Electrostatics                -19.14359858 [mEh]     -12.01278947 [kcal/mol]     -50.26151114 [kJ/mol]
      Elst10,r                    -19.14359858 [mEh]     -12.01278947 [kcal/mol]     -50.26151114 [kJ/mol]

    Exchange                       23.21820076 [mEh]      14.56964094 [kcal/mol]      60.95937769 [kJ/mol]
      Exch10                       23.21820076 [mEh]      14.56964094 [kcal/mol]      60.95937769 [kJ/mol]
      Exch10(S^2)                  23.06054243 [mEh]      14.47070885 [kcal/mol]      60.54544581 [kJ/mol]

    Induction                     -18.88875569 [mEh]     -11.85287314 [kcal/mol]     -49.59242122 [kJ/mol]
      Ind20,r                     -20.61940407 [mEh]     -12.93887140 [kcal/mol]     -54.13623793 [kJ/mol]
      Exch-Ind20,r                  6.30676075 [mEh]       3.95755212 [kcal/mol]      16.55839806 [kJ/mol]
      delta HF,r (2)               -4.57611236 [mEh]      -2.87155386 [kcal/mol]     -12.01458135 [kJ/mol]

    Dispersion                    -24.09867621 [mEh]     -15.12214762 [kcal/mol]     -63.27106566 [kJ/mol]
      Disp20                      -25.86666716 [mEh]     -16.23157870 [kcal/mol]     -67.91292527 [kJ/mol]
      Exch-Disp20                   1.76799095 [mEh]       1.10943107 [kcal/mol]       4.64185960 [kJ/mol]
      Disp20 (SS)                 -12.93333358 [mEh]      -8.11578935 [kcal/mol]     -33.95646263 [kJ/mol]
      Disp20 (OS)                 -12.93333358 [mEh]      -8.11578935 [kcal/mol]     -33.95646263 [kJ/mol]
      Exch-Disp20 (SS)              1.07956793 [mEh]       0.67743910 [kcal/mol]       2.83440521 [kJ/mol]
      Exch-Disp20 (OS)              0.68842302 [mEh]       0.43199197 [kcal/mol]       1.80745439 [kJ/mol]

  Total HF                        -14.81415351 [mEh]      -9.29602167 [kcal/mol]     -38.89455467 [kJ/mol]
  Total SAPT0                     -38.91282971 [mEh]     -24.41816930 [kcal/mol]    -102.16562033 [kJ/mol]

  Special recipe for scaled SAPT0 (see Manual):
    Electrostatics sSAPT0         -19.14359858 [mEh]     -12.01278947 [kcal/mol]     -50.26151114 [kJ/mol]
    Exchange sSAPT0                23.21820076 [mEh]      14.56964094 [kcal/mol]      60.95937769 [kJ/mol]
    Induction sSAPT0              -18.75851677 [mEh]     -11.77114699 [kcal/mol]     -49.25047899 [kJ/mol]
    Dispersion sSAPT0             -24.06216599 [mEh]     -15.09923712 [kcal/mol]     -63.17520809 [kJ/mol]
  Total sSAPT0                    -38.74608057 [mEh]     -24.31353263 [kcal/mol]    -101.72782053 [kJ/mol]
  --------------------------------------------------------------------------------------------------------

*** Psi4 exiting successfully. Buy a developer a beer!
