                               Psi4 1.9 release

  ==> Input File <==

--------------------------------------------------------------------------
memory 64 GB # how much memory is available ! Depends on the nodes/cores !

molecule dimer {
# monomer A
-1 1    # Charge and multiplicity
B -0.000046  0.000337 3.999994
F -1.153597  0.000048 4.815641
F  1.153661 -0.000581 4.815641
F -0.000019 -1.153637 3.184360
F -0.000019  1.153978 3.184360
--
# monomer B
0 1     # Charge and multiplicity
C   -3.66844126402057      7.80375217008252      0.00190004133558
C   -4.84759871934653      7.13124183134024     -0.00046653359696
C   -4.89495929917518      5.69633040353158     -0.00103944469517
C   -3.65374067877320      4.98073034095895      0.00662099703436
C   -2.40942512149445      7.11398103667468      0.00209438359570
C   -2.42547734410473      5.68112195090346     -0.00491050527438
C   -1.19474401643570      7.78614419430947      0.00356656413763
C   0.03795902893699      7.09942164575698      0.00139585983271
C   0.03033258741920      5.66948955970466     -0.00408752508301
C   -1.20098450790502      4.96927034791531      0.00488220885047
C   1.27795782581485      7.77285944319479      0.00277170839332
C   2.48535808472416      7.08769688523756      0.00049722048857
C   2.48612868491717      5.65477081024076     -0.00644052849921
C   1.25408291964399      4.95607811366431      0.00518741308898
C   3.75171459140595      7.76391215098033      0.00062407186893
C   4.92356605618520      7.07878077698995     -0.00143240883900
C   4.95560727132542      5.64344746336949     -0.00159282164606
C   3.70680153420475      4.94121020833308      0.00349873852374
H   -3.65852113775815      8.89082741913536      0.00358502958574
H   -1.18921332975660      8.87412108735996      0.00753844057883
H   1.28429423888630      8.86083343548850      0.00693053253426
H   3.75354208679975      8.85103527897216      0.00214659618464
H   5.86995870320703      7.61379483465560     -0.00235777588134
H   -5.78823170750226      7.67630221293400     -0.00202638095293
C   -6.09197395869619      4.99326001364347     -0.00291168518608
C   -6.12866148031747      3.58258016879823     -0.00171050815740
C   -3.66457974004527      3.56418217974434     -0.00463560277484
C   -4.89429820469869      2.86108077590057      0.00453338221034
C   -2.43733499489796      2.84761165708481      0.00719617576166
C   -1.20922785759670      3.54788693497833     -0.00648285103018
C   1.24714157216223      3.53468075142962     -0.00729145743546
C   0.01517603956900      2.83311183930540      0.00439272578912
C   2.46764517244071      2.82128997725533      0.00449278391269
C   3.70254947457969      3.52466015442405     -0.00899517692985
C   6.14498038638375      4.92757236613191     -0.00282626685777
C   6.16658835886151      3.51658447594213     -0.00065971342101
C   4.92460995845939      2.80840792535402      0.00587903281610
H   7.08990550964105      5.46688776622306     -0.00658814770723
H   -7.03104175110130      5.54268795285765     -0.00714490013730
C   -7.33969804112295      2.85841153457957     -0.00333767559888
C   -7.36488195805880      1.47032337158330     -0.00157213747140
C   -4.90350460894690      1.44442681216000     -0.00628840166334
C   -6.13225715261081      0.73993935705394      0.00600164231964
C   -3.67687480051673      0.72669714267312      0.00433931473643
C   -2.44565658606518      1.42964113326212     -0.00597039546461
C   -1.22360068130162      0.71532450163492      0.00545886906656
C   0.00763786931376      1.41738314923765      0.00392452278437
C   1.23121980774686      0.70211669058719     -0.01490206287210
C   2.46082110053113      1.40329203612573      0.00460244601878
C   3.68443025419614      0.68719842821222      0.00377365974158
C   4.91870890153864      1.39173456118907     -0.00862816189375
C   7.36980207796101      2.77948220318441     -0.00242013321349
C   7.38016266612146      1.39121750785509     -0.00087345036788
C   6.13979953912259      0.67411862320065      0.00545489144369
H   -8.27919079934664      3.40711804112415     -0.00763522772059
H   8.31511347147953      3.31811809662368     -0.00663070901292
C   -8.59175593758115      0.72483255304480     -0.00123170985383
C   -8.59902460370342     -0.63263980622873      0.00089141472904
C   -6.13981313911873     -0.67413663715361     -0.00609792660607
C   -7.38018411213749     -1.39126618958160      0.00131813493501
C   -4.91868448025621     -1.39175501803000      0.00624257154343
C   -3.68443829568458     -0.68723731573599     -0.00478966852105
C   -2.46081704024768     -1.40334517882457      0.00575341766833
C   -1.23116201232071     -0.70217386488055     -0.00636696112346
C   -0.00756962538737     -1.41741884941102      0.00108956317991
C   1.22364771588843     -0.71527537726392      0.01109518512883
C   2.44567064933149     -1.42964328900682     -0.00065482763106
C   3.67686670284649     -0.72670743155550     -0.00479541202602
C   6.13224884641929     -0.73997883984993     -0.00632338623858
C   4.90351914550401     -1.44445752054090      0.00751768830159
C   8.59901484869081      0.63260386666793     -0.00101133422380
C   8.59174548810050     -0.72485086719319      0.00072504603735
C   7.36486276438985     -1.47033266560598      0.00049486934466
H   -9.52830597181814      1.27684744919284     -0.00270163681798
H   9.54141097460619      1.17457248844457     -0.00206336648518
C   -7.36983790976868     -2.77954514593389      0.00312634335708
C   -4.92459910905015     -2.80843725734101     -0.00460528907921
C   -6.16662249566744     -3.51665219282533      0.00169655107992
C   -3.70251035970491     -3.52468154912026      0.00571878010666
C   -2.46764698511392     -2.82132596280400     -0.00632585824990
C   -0.01513347410770     -2.83314164539971     -0.00604426974092
C   -1.24712184122656     -3.53473217556300      0.00551968366725
C   1.20924506964357     -3.54791467864352      0.00805871345849
C   2.43733602215464     -2.84764173817541     -0.00608104485234
C   4.89430234377080     -2.86112296828604     -0.00526030478103
C   3.66461525504104     -3.56421984553201      0.00761911515957
C   6.12863901474565     -3.58258405771778      0.00096495711699
C   7.33967266469532     -2.85841330737039      0.00248018319869
H   -9.54144911125902     -1.17456346666430      0.00226083090216
H   9.52826186807155     -1.27691907390448      0.00197485379837
H   -8.31516504384864     -3.31814985321231      0.00729857188773
H   8.27915514249207     -3.40714078989363      0.00681973918158
C   -6.14499418870218     -4.92764727278338      0.00302254913999
C   -3.70678334799751     -4.94126171411716     -0.00679841894792
C   -4.95559005800169     -5.64349397349412      0.00116871569699
C   -2.48612132622665     -5.65478557440947      0.00614125209662
C   -1.25405833548005     -4.95612205000132     -0.00503435388927
C   1.20101257386816     -4.96928038819302     -0.00385322963129
C   -0.03033667441341     -5.66952030313900      0.00398997003238
C   3.65375010132847     -4.98074377541453     -0.00309522988330
C   2.42549269587528     -5.68117463552727      0.00628170066869
C   6.09196561781097     -4.99325796338655      0.00325918379042
C   4.89497644461045     -5.69634842095790      0.00202298796027
H   -7.08989238804069     -5.46699984223871      0.00742531082125
H   7.03105520920009     -5.54265853633254      0.00683896355417
C   -4.92354532219813     -7.07882109967734      0.00061394679214
C   -2.48534208823777     -7.08772807792913     -0.00189594564379
C   -3.75168589177895     -7.76394715763627     -0.00170126671874
C   -0.03794895698805     -7.09946487446944     -0.00168022049625
C   -1.27795610040136     -7.77290438466689     -0.00366491325785
C   2.40944432072629     -7.11402201200282     -0.00081701968533
C   1.19474993715296     -7.78618536556242     -0.00296931056689
C   4.84762105249800     -7.13126211057943      0.00168979497423
C   3.66847160587561     -7.80378799294376     -0.00065863938960
H   -5.86994035041618     -7.61383059804164      0.00215798365757
H   5.78824962538815     -7.67633218931421      0.00281691445618
H   -3.75352693944918     -8.85107156923607     -0.00353718114765
H   -1.28430440589466     -8.86087539249706     -0.00809229711623
H   1.18922157469537     -8.87416062058945     -0.00706194725726
H   3.65854661482387     -8.89086063405326     -0.00231318081200

    units angstrom      # Angstroms are the default
    no_reorient         # Geometry fixed, default
    symmetry c1         # C1 symmetry, default
}

set {
    scf_type DF         # Density fitting, faster than exact integrals
    freeze_core True    # Freeze core electrons
    basis jun-cc-pVDZ   # Jun-cc-pVDZ basis set, recommended for sSAPT0 in https://doi.org/10.1063/1.4867135
}

energy('ssapt0')        # Compute sSAPT0 energy, includes also SAPT0
--------------------------------------------------------------------------

  //              Dimer HF             //
    Molecular point group: c1
  Charge       = -1
  Multiplicity = 1
  Basis Set: JUN-CC-PVDZ
    Blend: JUN-CC-PVDZ
  Basis Set: (JUN-CC-PVDZ AUX)
    Blend: JUN-CC-PVDZ-JKFIT
  @DF-RHF Final Energy: -4073.11301697840872
    Total Energy =                      -4073.1130169784082682
 Dipole X            :          0.0012209           -0.0001188            0.0011021
 Dipole Y            :          0.0014442           -0.0002727            0.0011715
 Dipole Z            :         18.2488714          -23.8049543           -5.5560829
 Magnitude           :                                                    5.5560831
  //            Monomer A HF           //
    Molecular point group: c1
  Multiplicity = 1
  Basis Set: JUN-CC-PVDZ
    Blend: JUN-CC-PVDZ
  Basis Set: (JUN-CC-PVDZ AUX)
    Blend: JUN-CC-PVDZ-JKFIT
  @DF-RHF Final Energy:  -422.77311734714618
    Total Energy =                       -422.7731173471461830
  //            Monomer B HF           //
    Molecular point group: c1

    Geometry (in Angstrom), charge = 0, multiplicity = 1:

       Center              X                  Y                   Z               Mass
    ------------   -----------------  -----------------  -----------------  -----------------
      Gh(B)          -0.000050191042     0.000351518223     3.724488817114    11.009305360000
      Gh(F)          -1.153601191042     0.000062518223     4.540135817114    18.998403162730
      Gh(F)           1.153656808958    -0.000566481777     4.540135817114    18.998403162730
      Gh(F)          -0.000023191042    -1.153622481777     2.908854817114    18.998403162730
      Gh(F)          -0.000023191042     1.153992518223     2.908854817114    18.998403162730
         C           -3.668445455062     7.803766688305    -0.273605141550    12.000000000000
         C           -4.847602910388     7.131256349563    -0.275971716483    12.000000000000
         C           -4.894963490217     5.696344921754    -0.276544627581    12.000000000000
         C           -3.653744869815     4.980744859182    -0.268884185852    12.000000000000
         C           -2.409429312536     7.113995554897    -0.273410799290    12.000000000000
         C           -2.425481535146     5.681136469126    -0.280415688160    12.000000000000
         C           -1.194748207477     7.786158712532    -0.271938618748    12.000000000000
         C            0.037954837895     7.099436163980    -0.274109323053    12.000000000000
         C            0.030328396378     5.669504077927    -0.279592707969    12.000000000000
         C           -1.200988698947     4.969284866138    -0.270622974035    12.000000000000
         C            1.277953634773     7.772873961417    -0.272733474493    12.000000000000
         C            2.485353893683     7.087711403460    -0.275007962397    12.000000000000
         C            2.486124493876     5.654785328463    -0.281945711385    12.000000000000
         C            1.254078728602     4.956092631887    -0.270317769797    12.000000000000
         C            3.751710400364     7.763926669203    -0.274881111017    12.000000000000
         C            4.923561865144     7.078795295213    -0.276937591725    12.000000000000
         C            4.955603080284     5.643461981592    -0.277098004532    12.000000000000
         C            3.706797343163     4.941224726556    -0.272006444362    12.000000000000
         H           -3.658525328800     8.890841937358    -0.271920153300     1.007825032230
         H           -1.189217520798     8.874135605583    -0.267966742307     1.007825032230
         H            1.284290047845     8.860847953711    -0.268574650352     1.007825032230
         H            3.753537895758     8.851049797195    -0.273358586701     1.007825032230
         H            5.869954512165     7.613809352878    -0.277862958767     1.007825032230
         H           -5.788235898544     7.676316731157    -0.277531563839     1.007825032230
         C           -6.091978149738     4.993274531866    -0.278416868072    12.000000000000
         C           -6.128665671359     3.582594687021    -0.277215691043    12.000000000000
         C           -3.664583931087     3.564196697967    -0.280140785661    12.000000000000
         C           -4.894302395740     2.861095294123    -0.270971800676    12.000000000000
         C           -2.437339185940     2.847626175307    -0.268309007124    12.000000000000
         C           -1.209232048638     3.547901453201    -0.281988033916    12.000000000000
         C            1.247137381121     3.534695269652    -0.282796640321    12.000000000000
         C            0.015171848527     2.833126357528    -0.271112457097    12.000000000000
         C            2.467640981399     2.821304495478    -0.271012398973    12.000000000000
         C            3.702545283538     3.524674672647    -0.284500359816    12.000000000000
         C            6.144976195342     4.927586884354    -0.278331449744    12.000000000000
         C            6.166584167820     3.516598994165    -0.276164896307    12.000000000000
         C            4.924605767418     2.808422443577    -0.269626150070    12.000000000000
         H            7.089901318599     5.466902284446    -0.282093330593     1.007825032230
         H           -7.031045942143     5.542702471080    -0.282650083023     1.007825032230
         C           -7.339702232165     2.858426052802    -0.278842858485    12.000000000000
         C           -7.364886149100     1.470337889806    -0.277077320357    12.000000000000
         C           -4.903508799989     1.444441330383    -0.281793584549    12.000000000000
         C           -6.132261343652     0.739953875277    -0.269503540566    12.000000000000
         C           -3.676878991558     0.726711660896    -0.271165868150    12.000000000000
         C           -2.445660777107     1.429655651485    -0.281475578351    12.000000000000
         C           -1.223604872343     0.715339019858    -0.270046313819    12.000000000000
         C            0.007633678272     1.417397667460    -0.271580660102    12.000000000000
         C            1.231215616705     0.702131208810    -0.290407245758    12.000000000000
         C            2.460816909489     1.403306554348    -0.270902736867    12.000000000000
         C            3.684426063155     0.687212946435    -0.271731523144    12.000000000000
         C            4.918704710497     1.391749079412    -0.284133344780    12.000000000000
         C            7.369797886919     2.779496721407    -0.277925316099    12.000000000000
         C            7.380158475080     1.391232026078    -0.276378633254    12.000000000000
         C            6.139795348081     0.674133141423    -0.270050291442    12.000000000000
         H           -8.279194990388     3.407132559347    -0.283140410607     1.007825032230
         H            8.315109280438     3.318132614846    -0.282135891899     1.007825032230
         C           -8.591760128623     0.724847071267    -0.276736892740    12.000000000000
         C           -8.599028794745    -0.632625288006    -0.274613768157    12.000000000000
         C           -6.139817330160    -0.674122118931    -0.281603109492    12.000000000000
         C           -7.380188303179    -1.391251671359    -0.274187047951    12.000000000000
         C           -4.918688671298    -1.391740499807    -0.269262611343    12.000000000000
         C           -3.684442486726    -0.687222797513    -0.280294851407    12.000000000000
         C           -2.460821231289    -1.403330660602    -0.269751765218    12.000000000000
         C           -1.231166203362    -0.702159346658    -0.281872144009    12.000000000000
         C           -0.007573816429    -1.417404331188    -0.274415619706    12.000000000000
         C            1.223643524847    -0.715260859041    -0.264409997757    12.000000000000
         C            2.445666458290    -1.429628770784    -0.276160010517    12.000000000000
         C            3.676862511805    -0.726692913333    -0.280300594912    12.000000000000
         C            6.132244655378    -0.739964321627    -0.281828569125    12.000000000000
         C            4.903514954462    -1.444443002318    -0.267987494584    12.000000000000
         C            8.599010657649     0.632618384891    -0.276516517110    12.000000000000
         C            8.591741297059    -0.724836348971    -0.274780136849    12.000000000000
         C            7.364858573348    -1.470318147383    -0.275010313541    12.000000000000
         H           -9.528310162860     1.276861967415    -0.278206819704     1.007825032230
         H            9.541406783565     1.174587006667    -0.277568549371     1.007825032230
         C           -7.369842100810    -2.779530627711    -0.272378839529    12.000000000000
         C           -4.924603300092    -2.808422739118    -0.280110471965    12.000000000000
         C           -6.166626686709    -3.516637674603    -0.273808631806    12.000000000000
         C           -3.702514550747    -3.524667030898    -0.269786402779    12.000000000000
         C           -2.467651176156    -2.821311444581    -0.281831041136    12.000000000000
         C           -0.015137665149    -2.833127127177    -0.281549452627    12.000000000000
         C           -1.247126032268    -3.534717657340    -0.269985499219    12.000000000000
         C            1.209240878602    -3.547900160421    -0.267446469427    12.000000000000
         C            2.437331831113    -2.847627219953    -0.281586227738    12.000000000000
         C            4.894298152729    -2.861108450063    -0.280765487667    12.000000000000
         C            3.664611063999    -3.564205327309    -0.267886067726    12.000000000000
         C            6.128634823704    -3.582569539495    -0.274540225769    12.000000000000
         C            7.339668473654    -2.858398789148    -0.273024999687    12.000000000000
         H           -9.541453302301    -1.174548948442    -0.273244351984     1.007825032230
         H            9.528257677030    -1.276904555682    -0.273530329088     1.007825032230
         H           -8.315169234890    -3.318135334990    -0.268206610998     1.007825032230
         H            8.279150951450    -3.407126271671    -0.268685443704     1.007825032230
         C           -6.144998379744    -4.927632754561    -0.272482633746    12.000000000000
         C           -3.706787539039    -4.941247195895    -0.282303601834    12.000000000000
         C           -4.955594249043    -5.643479455272    -0.274336467189    12.000000000000
         C           -2.486125517268    -5.654771056187    -0.269363930789    12.000000000000
         C           -1.254062526522    -4.956107531779    -0.280539536775    12.000000000000
         C            1.201008382827    -4.969265869970    -0.279358412517    12.000000000000
         C           -0.030340865455    -5.669505784916    -0.271515212854    12.000000000000
         C            3.653745910287    -4.980729257192    -0.278600412769    12.000000000000
         C            2.425488504834    -5.681160117305    -0.269223482217    12.000000000000
         C            6.091961426769    -4.993243445164    -0.272245999096    12.000000000000
         C            4.894972253569    -5.696333902735    -0.273482194926    12.000000000000
         H           -7.089896579082    -5.466985324016    -0.268079872065     1.007825032230
         H            7.031051018158    -5.542644018110    -0.268666219332     1.007825032230
         C           -4.923549513240    -7.078806581455    -0.274891236094    12.000000000000
         C           -2.485346279279    -7.087713559707    -0.277401128530    12.000000000000
         C           -3.751690082821    -7.763932639414    -0.277206449605    12.000000000000
         C           -0.037953148030    -7.099450356247    -0.277185403382    12.000000000000
         C           -1.277960291443    -7.772889866444    -0.279170096144    12.000000000000
         C            2.409440129685    -7.114007493780    -0.276322202571    12.000000000000
         C            1.194745746111    -7.786170847340    -0.278474493453    12.000000000000
         C            4.847616861456    -7.131247592357    -0.273815387912    12.000000000000
         C            3.668467414834    -7.803773474721    -0.276163822276    12.000000000000
         H           -5.869944541458    -7.613816079819    -0.273347199228     1.007825032230
         H            5.788245434347    -7.676317671092    -0.272688268430     1.007825032230
         H           -3.753531130491    -8.851057051013    -0.279042364034     1.007825032230
         H           -1.284308596936    -8.860860874274    -0.283597480002     1.007825032230
         H            1.189217383654    -8.874146102367    -0.282567130143     1.007825032230
         H            3.658542423782    -8.890846115831    -0.277818363698     1.007825032230

  Charge       = 0
  Multiplicity = 1
  Basis Set: JUN-CC-PVDZ
    Blend: JUN-CC-PVDZ
  Basis Set: (JUN-CC-PVDZ AUX)
    Blend: JUN-CC-PVDZ-JKFIT

    Orbital Energies [Eh]
    ---------------------

    Doubly Occupied:

       1A    -11.264117     2A    -11.263799     3A    -11.263723
       4A    -11.263391     5A    -11.263324     6A    -11.263299
       7A    -11.263189     8A    -11.263153     9A    -11.263130
      10A    -11.262923    11A    -11.262797    12A    -11.262791
      13A    -11.262301    14A    -11.262297    15A    -11.262272
      16A    -11.262249    17A    -11.262151    18A    -11.262140
      19A    -11.262102    20A    -11.262062    21A    -11.262041
      22A    -11.261953    23A    -11.261924    24A    -11.261784
      25A    -11.261776    26A    -11.261758    27A    -11.261737
      28A    -11.261710    29A    -11.261692    30A    -11.261602
      31A    -11.261584    32A    -11.261580    33A    -11.261577
      34A    -11.261557    35A    -11.261549    36A    -11.261533
      37A    -11.261352    38A    -11.261343    39A    -11.261336
      40A    -11.261330    41A    -11.261324    42A    -11.261320
      43A    -11.261309    44A    -11.261292    45A    -11.261289
      46A    -11.261263    47A    -11.261260    48A    -11.261253
      49A    -11.261088    50A    -11.261061    51A    -11.261055
      52A    -11.261000    53A    -11.260968    54A    -11.260922
      55A    -11.259938    56A    -11.259925    57A    -11.259919
      58A    -11.259894    59A    -11.259887    60A    -11.259873
      61A    -11.259308    62A    -11.259282    63A    -11.259280
      64A    -11.259227    65A    -11.259225    66A    -11.259195
      67A    -11.258941    68A    -11.258925    69A    -11.258917
      70A    -11.258894    71A    -11.258887    72A    -11.258877
      73A    -11.254542    74A    -11.254541    75A    -11.254537
      76A    -11.254535    77A    -11.254532    78A    -11.254531
      79A    -11.253675    80A    -11.253672    81A    -11.253669
      82A    -11.253667    83A    -11.253666    84A    -11.253663
      85A    -11.253590    86A    -11.253587    87A    -11.253584
      88A    -11.253582    89A    -11.253581    90A    -11.253578
      91A    -11.253070    92A    -11.253068    93A    -11.253065
      94A    -11.253063    95A    -11.253060    96A    -11.253059
      97A     -1.253964    98A     -1.239025    99A     -1.239014
     100A     -1.220484   101A     -1.220483   102A     -1.215455
     103A     -1.201062   104A     -1.195627   105A     -1.188162
     106A     -1.188158   107A     -1.173787   108A     -1.173782
     109A     -1.155651   110A     -1.155646   111A     -1.152730
     112A     -1.144744   113A     -1.144740   114A     -1.128589
     115A     -1.114735   116A     -1.113183   117A     -1.112495
     118A     -1.112487   119A     -1.111639   120A     -1.088451
     121A     -1.088432   122A     -1.076981   123A     -1.076980
     124A     -1.067636   125A     -1.067607   126A     -1.064988
     127A     -1.046820   128A     -1.046814   129A     -1.040502
     130A     -1.038755   131A     -1.038754   132A     -1.025262
     133A     -1.021400   134A     -1.021353   135A     -1.007201
     136A     -1.006833   137A     -1.003816   138A     -1.000508
     139A     -1.000462   140A     -0.991094   141A     -0.971009
     142A     -0.970960   143A     -0.955902   144A     -0.955848
     145A     -0.905611   146A     -0.905568   147A     -0.905565
     148A     -0.905529   149A     -0.904349   150A     -0.892383
     151A     -0.892333   152A     -0.890385   153A     -0.890321
     154A     -0.889478   155A     -0.872236   156A     -0.869074
     157A     -0.851560   158A     -0.847885   159A     -0.847865
     160A     -0.845615   161A     -0.843039   162A     -0.834586
     163A     -0.834571   164A     -0.828133   165A     -0.828132
     166A     -0.784568   167A     -0.784556   168A     -0.783680
     169A     -0.783649   170A     -0.782304   171A     -0.782290
     172A     -0.782052   173A     -0.767012   174A     -0.760810
     175A     -0.750590   176A     -0.733503   177A     -0.727088
     178A     -0.727079   179A     -0.725104   180A     -0.724558
     181A     -0.724545   182A     -0.718504   183A     -0.713789
     184A     -0.713782   185A     -0.699590   186A     -0.699584
     187A     -0.686136   188A     -0.685974   189A     -0.685973
     190A     -0.682195   191A     -0.682180   192A     -0.678786
     193A     -0.653639   194A     -0.650887   195A     -0.650859
     196A     -0.649828   197A     -0.649809   198A     -0.649583
     199A     -0.640935   200A     -0.640920   201A     -0.640106
     202A     -0.639180   203A     -0.636032   204A     -0.636011
     205A     -0.629160   206A     -0.617739   207A     -0.615320
     208A     -0.615302   209A     -0.608819   210A     -0.608812
     211A     -0.599160   212A     -0.599084   213A     -0.598758
     214A     -0.598631   215A     -0.598596   216A     -0.598046
     217A     -0.595084   218A     -0.595072   219A     -0.594738
     220A     -0.594247   221A     -0.591969   222A     -0.591966
     223A     -0.587404   224A     -0.577810   225A     -0.577800
     226A     -0.575673   227A     -0.575667   228A     -0.573398
     229A     -0.569584   230A     -0.568149   231A     -0.568131
     232A     -0.566771   233A     -0.566756   234A     -0.560927
     235A     -0.558727   236A     -0.558715   237A     -0.558441
     238A     -0.554384   239A     -0.550560   240A     -0.547488
     241A     -0.544271   242A     -0.535059   243A     -0.534968
     244A     -0.533549   245A     -0.533527   246A     -0.528091
     247A     -0.528077   248A     -0.527803   249A     -0.517172
     250A     -0.517138   251A     -0.515358   252A     -0.515351
     253A     -0.509658   254A     -0.509640   255A     -0.498043
     256A     -0.496464   257A     -0.496436   258A     -0.493799
     259A     -0.493781   260A     -0.489449   261A     -0.481466
     262A     -0.477425   263A     -0.477418   264A     -0.474009
     265A     -0.469455   266A     -0.466540   267A     -0.466534
     268A     -0.458806   269A     -0.446698   270A     -0.446635
     271A     -0.441040   272A     -0.440774   273A     -0.440755
     274A     -0.434691   275A     -0.433915   276A     -0.407381
     277A     -0.407354   278A     -0.386406   279A     -0.386350
     280A     -0.385737   281A     -0.385733   282A     -0.383751
     283A     -0.354315   284A     -0.354304   285A     -0.350663
     286A     -0.338106   287A     -0.335611   288A     -0.335524
     289A     -0.332716   290A     -0.332708   291A     -0.307058
     292A     -0.301937   293A     -0.301884   294A     -0.300851
     295A     -0.286176   296A     -0.256476   297A     -0.253503
     298A     -0.253441   299A     -0.204265   300A     -0.204178

  @DF-RHF Final Energy: -3650.33971883413324

   => Energetics <=

    Nuclear Repulsion Energy =          15611.4211649754324753
    One-Electron Energy =              -36072.1358676519448636
    Two-Electron Energy =               16810.3749838423791516
    Total Energy =                      -3650.3397188341332367
 Dipole X            :         -0.0001910            0.0001983            0.0000074
 Dipole Y            :          0.0012172           -0.0013163           -0.0000991
 Dipole Z            :        312.3737879         -312.3742132           -0.0004253
 Magnitude           :                                                    0.0004367

    SAPT Results
  --------------------------------------------------------------------------------------------------------
    Electrostatics                 10.43980986 [mEh]       6.55107959 [kcal/mol]      27.40971701 [kJ/mol]
      Elst10,r                     10.43980986 [mEh]       6.55107959 [kcal/mol]      27.40971701 [kJ/mol]

    Exchange                        4.73997929 [mEh]       2.97438191 [kcal/mol]      12.44481392 [kJ/mol]
      Exch10                        4.73997929 [mEh]       2.97438191 [kcal/mol]      12.44481392 [kJ/mol]
      Exch10(S^2)                   4.73723932 [mEh]       2.97266255 [kcal/mol]      12.43762013 [kJ/mol]

    Induction                     -15.36058628 [mEh]      -9.63891341 [kcal/mol]     -40.32921373 [kJ/mol]
      Ind20,r                     -16.29858186 [mEh]     -10.22751453 [kcal/mol]     -42.79192078 [kJ/mol]
      Exch-Ind20,r                  1.29963477 [mEh]       0.81553313 [kcal/mol]       3.41219061 [kJ/mol]
      delta HF,r (2)               -0.36163919 [mEh]      -0.22693202 [kcal/mol]      -0.94948355 [kJ/mol]

    Dispersion                     -7.44053272 [mEh]      -4.66900477 [kcal/mol]     -19.53511597 [kJ/mol]
      Disp20                       -8.17057805 [mEh]      -5.12711513 [kcal/mol]     -21.45184972 [kJ/mol]
      Exch-Disp20                   0.73004533 [mEh]       0.45811036 [kcal/mol]       1.91673375 [kJ/mol]
      Disp20 (SS)                  -4.08528903 [mEh]      -2.56355757 [kcal/mol]     -10.72592486 [kJ/mol]
      Disp20 (OS)                  -4.08528903 [mEh]      -2.56355757 [kcal/mol]     -10.72592486 [kJ/mol]
      Exch-Disp20 (SS)              0.43653708 [mEh]       0.27393115 [kcal/mol]       1.14612794 [kJ/mol]
      Exch-Disp20 (OS)              0.29350825 [mEh]       0.18417921 [kcal/mol]       0.77060581 [kJ/mol]

  Total HF                         -0.18079713 [mEh]      -0.11345191 [kcal/mol]      -0.47468280 [kJ/mol]
  Total SAPT0                      -7.62132985 [mEh]      -4.78245668 [kcal/mol]     -20.00979877 [kJ/mol]

  Special recipe for scaled SAPT0 (see Manual):
    Electrostatics sSAPT0          10.43980986 [mEh]       6.55107959 [kcal/mol]      27.40971701 [kJ/mol]
    Exchange sSAPT0                 4.73997929 [mEh]       2.97438191 [kcal/mol]      12.44481392 [kJ/mol]
    Induction sSAPT0              -15.35832989 [mEh]      -9.63749751 [kcal/mol]     -40.32328957 [kJ/mol]
    Dispersion sSAPT0              -7.43926524 [mEh]      -4.66820941 [kcal/mol]     -19.53178819 [kJ/mol]
  Total sSAPT0                     -7.61780598 [mEh]      -4.78024542 [kcal/mol]     -20.00054684 [kJ/mol]
  --------------------------------------------------------------------------------------------------------

*** Psi4 exiting successfully. Buy a developer a beer!
