                               Psi4 1.9 release

  ==> Input File <==

--------------------------------------------------------------------------
memory 80 GB # how much memory is available ! Depends on the nodes/cores !

molecule dimer {
# monomer A
-1 1    # Charge and multiplicity
B -1.977592e-04  2.742729e-04 -2.699966
F  1.123153e-16  1.430594e-17 -1.287181
F  1.147860e+00  6.757812e-01 -3.171107
F  1.191806e-02 -1.332011e+00 -3.170905
F -1.159666e+00  6.560735e-01 -3.170826
--
# monomer B
0 1     # Charge and multiplicity
C   -3.66844126402057      7.80375217008252      0.00190004133558
C   -4.84759871934653      7.13124183134024     -0.00046653359696
C   -4.89495929917518      5.69633040353158     -0.00103944469517
C   -3.65374067877320      4.98073034095895      0.00662099703436
C   -2.40942512149445      7.11398103667468      0.00209438359570
C   -2.42547734410473      5.68112195090346     -0.00491050527438
C   -1.19474401643570      7.78614419430947      0.00356656413763
C   0.03795902893699      7.09942164575698      0.00139585983271
C   0.03033258741920      5.66948955970466     -0.00408752508301
C   -1.20098450790502      4.96927034791531      0.00488220885047
C   1.27795782581485      7.77285944319479      0.00277170839332
C   2.48535808472416      7.08769688523756      0.00049722048857
C   2.48612868491717      5.65477081024076     -0.00644052849921
C   1.25408291964399      4.95607811366431      0.00518741308898
C   3.75171459140595      7.76391215098033      0.00062407186893
C   4.92356605618520      7.07878077698995     -0.00143240883900
C   4.95560727132542      5.64344746336949     -0.00159282164606
C   3.70680153420475      4.94121020833308      0.00349873852374
H   -3.65852113775815      8.89082741913536      0.00358502958574
H   -1.18921332975660      8.87412108735996      0.00753844057883
H   1.28429423888630      8.86083343548850      0.00693053253426
H   3.75354208679975      8.85103527897216      0.00214659618464
H   5.86995870320703      7.61379483465560     -0.00235777588134
H   -5.78823170750226      7.67630221293400     -0.00202638095293
C   -6.09197395869619      4.99326001364347     -0.00291168518608
C   -6.12866148031747      3.58258016879823     -0.00171050815740
C   -3.66457974004527      3.56418217974434     -0.00463560277484
C   -4.89429820469869      2.86108077590057      0.00453338221034
C   -2.43733499489796      2.84761165708481      0.00719617576166
C   -1.20922785759670      3.54788693497833     -0.00648285103018
C   1.24714157216223      3.53468075142962     -0.00729145743546
C   0.01517603956900      2.83311183930540      0.00439272578912
C   2.46764517244071      2.82128997725533      0.00449278391269
C   3.70254947457969      3.52466015442405     -0.00899517692985
C   6.14498038638375      4.92757236613191     -0.00282626685777
C   6.16658835886151      3.51658447594213     -0.00065971342101
C   4.92460995845939      2.80840792535402      0.00587903281610
H   7.08990550964105      5.46688776622306     -0.00658814770723
H   -7.03104175110130      5.54268795285765     -0.00714490013730
C   -7.33969804112295      2.85841153457957     -0.00333767559888
C   -7.36488195805880      1.47032337158330     -0.00157213747140
C   -4.90350460894690      1.44442681216000     -0.00628840166334
C   -6.13225715261081      0.73993935705394      0.00600164231964
C   -3.67687480051673      0.72669714267312      0.00433931473643
C   -2.44565658606518      1.42964113326212     -0.00597039546461
C   -1.22360068130162      0.71532450163492      0.00545886906656
C   0.00763786931376      1.41738314923765      0.00392452278437
C   1.23121980774686      0.70211669058719     -0.01490206287210
C   2.46082110053113      1.40329203612573      0.00460244601878
C   3.68443025419614      0.68719842821222      0.00377365974158
C   4.91870890153864      1.39173456118907     -0.00862816189375
C   7.36980207796101      2.77948220318441     -0.00242013321349
C   7.38016266612146      1.39121750785509     -0.00087345036788
C   6.13979953912259      0.67411862320065      0.00545489144369
H   -8.27919079934664      3.40711804112415     -0.00763522772059
H   8.31511347147953      3.31811809662368     -0.00663070901292
C   -8.59175593758115      0.72483255304480     -0.00123170985383
C   -8.59902460370342     -0.63263980622873      0.00089141472904
C   -6.13981313911873     -0.67413663715361     -0.00609792660607
C   -7.38018411213749     -1.39126618958160      0.00131813493501
C   -4.91868448025621     -1.39175501803000      0.00624257154343
C   -3.68443829568458     -0.68723731573599     -0.00478966852105
C   -2.46081704024768     -1.40334517882457      0.00575341766833
C   -1.23116201232071     -0.70217386488055     -0.00636696112346
C   -0.00756962538737     -1.41741884941102      0.00108956317991
C   1.22364771588843     -0.71527537726392      0.01109518512883
C   2.44567064933149     -1.42964328900682     -0.00065482763106
C   3.67686670284649     -0.72670743155550     -0.00479541202602
C   6.13224884641929     -0.73997883984993     -0.00632338623858
C   4.90351914550401     -1.44445752054090      0.00751768830159
C   8.59901484869081      0.63260386666793     -0.00101133422380
C   8.59174548810050     -0.72485086719319      0.00072504603735
C   7.36486276438985     -1.47033266560598      0.00049486934466
H   -9.52830597181814      1.27684744919284     -0.00270163681798
H   9.54141097460619      1.17457248844457     -0.00206336648518
C   -7.36983790976868     -2.77954514593389      0.00312634335708
C   -4.92459910905015     -2.80843725734101     -0.00460528907921
C   -6.16662249566744     -3.51665219282533      0.00169655107992
C   -3.70251035970491     -3.52468154912026      0.00571878010666
C   -2.46764698511392     -2.82132596280400     -0.00632585824990
C   -0.01513347410770     -2.83314164539971     -0.00604426974092
C   -1.24712184122656     -3.53473217556300      0.00551968366725
C   1.20924506964357     -3.54791467864352      0.00805871345849
C   2.43733602215464     -2.84764173817541     -0.00608104485234
C   4.89430234377080     -2.86112296828604     -0.00526030478103
C   3.66461525504104     -3.56421984553201      0.00761911515957
C   6.12863901474565     -3.58258405771778      0.00096495711699
C   7.33967266469532     -2.85841330737039      0.00248018319869
H   -9.54144911125902     -1.17456346666430      0.00226083090216
H   9.52826186807155     -1.27691907390448      0.00197485379837
H   -8.31516504384864     -3.31814985321231      0.00729857188773
H   8.27915514249207     -3.40714078989363      0.00681973918158
C   -6.14499418870218     -4.92764727278338      0.00302254913999
C   -3.70678334799751     -4.94126171411716     -0.00679841894792
C   -4.95559005800169     -5.64349397349412      0.00116871569699
C   -2.48612132622665     -5.65478557440947      0.00614125209662
C   -1.25405833548005     -4.95612205000132     -0.00503435388927
C   1.20101257386816     -4.96928038819302     -0.00385322963129
C   -0.03033667441341     -5.66952030313900      0.00398997003238
C   3.65375010132847     -4.98074377541453     -0.00309522988330
C   2.42549269587528     -5.68117463552727      0.00628170066869
C   6.09196561781097     -4.99325796338655      0.00325918379042
C   4.89497644461045     -5.69634842095790      0.00202298796027
H   -7.08989238804069     -5.46699984223871      0.00742531082125
H   7.03105520920009     -5.54265853633254      0.00683896355417
C   -4.92354532219813     -7.07882109967734      0.00061394679214
C   -2.48534208823777     -7.08772807792913     -0.00189594564379
C   -3.75168589177895     -7.76394715763627     -0.00170126671874
C   -0.03794895698805     -7.09946487446944     -0.00168022049625
C   -1.27795610040136     -7.77290438466689     -0.00366491325785
C   2.40944432072629     -7.11402201200282     -0.00081701968533
C   1.19474993715296     -7.78618536556242     -0.00296931056689
C   4.84762105249800     -7.13126211057943      0.00168979497423
C   3.66847160587561     -7.80378799294376     -0.00065863938960
H   -5.86994035041618     -7.61383059804164      0.00215798365757
H   5.78824962538815     -7.67633218931421      0.00281691445618
H   -3.75352693944918     -8.85107156923607     -0.00353718114765
H   -1.28430440589466     -8.86087539249706     -0.00809229711623
H   1.18922157469537     -8.87416062058945     -0.00706194725726
H   3.65854661482387     -8.89086063405326     -0.00231318081200

    units angstrom      # Angstroms are the default
    no_reorient         # Geometry fixed, default
    symmetry c1         # C1 symmetry, default
}

set {
    scf_type DF         # Density fitting, faster than exact integrals
    freeze_core True    # Freeze core electrons
    basis jun-cc-pVDZ   # Jun-cc-pVDZ basis set, recommended for sSAPT0 in https://doi.org/10.1063/1.4867135
}

energy('ssapt0')        # Compute sSAPT0 energy, includes also SAPT0
--------------------------------------------------------------------------

  //              Dimer HF             //
    Molecular point group: c1
  Charge       = -1
  Multiplicity = 1
  Basis Set: JUN-CC-PVDZ
    Blend: JUN-CC-PVDZ
  Basis Set: (JUN-CC-PVDZ AUX)
    Blend: JUN-CC-PVDZ-JKFIT
  @DF-RHF Final Energy: -4072.86114206709499
    Total Energy =                      -4072.8611420670968073
 Dipole X            :          0.0004695           -0.0000548            0.0004148
 Dipole Y            :         -0.0000416           -0.0002464           -0.0002880
 Dipole Z            :        -13.2677961           16.0676756            2.7998795
 Magnitude           :                                                    2.7998796
  //            Monomer A HF           //
    Molecular point group: c1
  Multiplicity = 1
  Basis Set: JUN-CC-PVDZ
    Blend: JUN-CC-PVDZ
  Basis Set: (JUN-CC-PVDZ AUX)
    Blend: JUN-CC-PVDZ-JKFIT
  @DF-RHF Final Energy:  -422.77682405251517
    Total Energy =                       -422.7768240525151668
  //            Monomer B HF           //
    Molecular point group: c1

    Geometry (in Angstrom), charge = 0, multiplicity = 1:

       Center              X                  Y                   Z               Mass
    ------------   -----------------  -----------------  -----------------  -----------------
      Gh(B)          -0.000201921932     0.000288800891    -2.514005229567    11.009305360000
      Gh(F)          -0.000004162732     0.000014527991    -1.101220229567    18.998403162730
      Gh(F)           1.147855837268     0.675795727991    -2.985146229567    18.998403162730
      Gh(F)           0.011913897268    -1.331996472009    -2.984944229567    18.998403162730
      Gh(F)          -1.159670162732     0.656088027991    -2.984865229567    18.998403162730
         C           -3.668445426752     7.803766698073     0.187860811768    12.000000000000
         C           -4.847602882078     7.131256359331     0.185494236836    12.000000000000
         C           -4.894963461907     5.696344931522     0.184921325738    12.000000000000
         C           -3.653744841505     4.980744868950     0.192581767467    12.000000000000
         C           -2.409429284226     7.113995564665     0.188055154029    12.000000000000
         C           -2.425481506836     5.681136478894     0.181050265159    12.000000000000
         C           -1.194748179167     7.786158722300     0.189527334571    12.000000000000
         C            0.037954866205     7.099436173748     0.187356630266    12.000000000000
         C            0.030328424687     5.669504087695     0.181873245350    12.000000000000
         C           -1.200988670637     4.969284875906     0.190842979283    12.000000000000
         C            1.277953663083     7.772873971185     0.188732478826    12.000000000000
         C            2.485353921992     7.087711413228     0.186457990921    12.000000000000
         C            2.486124522185     5.654785338231     0.179520241934    12.000000000000
         C            1.254078756912     4.956092641655     0.191148183522    12.000000000000
         C            3.751710428674     7.763926678971     0.186584842302    12.000000000000
         C            4.923561893453     7.078795304981     0.184528361594    12.000000000000
         C            4.955603108594     5.643461991360     0.184367948787    12.000000000000
         C            3.706797371473     4.941224736324     0.189459508957    12.000000000000
         H           -3.658525300490     8.890841947126     0.189545800019     1.007825032230
         H           -1.189217492488     8.874135615351     0.193499211012     1.007825032230
         H            1.284290076155     8.860847963479     0.192891302967     1.007825032230
         H            3.753537924068     8.851049806963     0.188107366618     1.007825032230
         H            5.869954540475     7.613809362646     0.183602994552     1.007825032230
         H           -5.788235870234     7.676316740925     0.183934389480     1.007825032230
         C           -6.091978121428     4.993274541634     0.183049085247    12.000000000000
         C           -6.128665643049     3.582594696789     0.184250262276    12.000000000000
         C           -3.664583902777     3.564196707735     0.181325167658    12.000000000000
         C           -4.894302367430     2.861095303891     0.190494152643    12.000000000000
         C           -2.437339157630     2.847626185075     0.193156946195    12.000000000000
         C           -1.209232020328     3.547901462969     0.179477919403    12.000000000000
         C            1.247137409430     3.534695279420     0.178669312997    12.000000000000
         C            0.015171876837     2.833126367296     0.190353496222    12.000000000000
         C            2.467641009709     2.821304505246     0.190453554346    12.000000000000
         C            3.702545311848     3.524674682415     0.176965593503    12.000000000000
         C            6.144976223652     4.927586894122     0.183134503575    12.000000000000
         C            6.166584196130     3.516599003933     0.185301057012    12.000000000000
         C            4.924605795728     2.808422453345     0.191839803249    12.000000000000
         H            7.089901346909     5.466902294214     0.179372622726     1.007825032230
         H           -7.031045913833     5.542702480848     0.178815870296     1.007825032230
         C           -7.339702203855     2.858426062570     0.182623094834    12.000000000000
         C           -7.364886120791     1.470337899574     0.184388632962    12.000000000000
         C           -4.903508771679     1.444441340151     0.179672368770    12.000000000000
         C           -6.132261315343     0.739953885044     0.191962412753    12.000000000000
         C           -3.676878963248     0.726711670664     0.190300085169    12.000000000000
         C           -2.445660748797     1.429655661253     0.179990374968    12.000000000000
         C           -1.223604844033     0.715339029625     0.191419639499    12.000000000000
         C            0.007633706582     1.417397677228     0.189885293217    12.000000000000
         C            1.231215645015     0.702131218578     0.171058707561    12.000000000000
         C            2.460816937799     1.403306564116     0.190563216452    12.000000000000
         C            3.684426091464     0.687212956203     0.189734430174    12.000000000000
         C            4.918704738807     1.391749089180     0.177332608539    12.000000000000
         C            7.369797915229     2.779496731175     0.183540637219    12.000000000000
         C            7.380158503390     1.391232035846     0.185087320065    12.000000000000
         C            6.139795376391     0.674133151191     0.191415661877    12.000000000000
         H           -8.279194962078     3.407132569115     0.178325542712     1.007825032230
         H            8.315109308748     3.318132624614     0.179330061420     1.007825032230
         C           -8.591760100313     0.724847081035     0.184729060579    12.000000000000
         C           -8.599028766435    -0.632625278238     0.186852185162    12.000000000000
         C           -6.139817301850    -0.674122109163     0.179862843827    12.000000000000
         C           -7.380188274869    -1.391251661591     0.187278905368    12.000000000000
         C           -4.918688642988    -1.391740490039     0.192203341976    12.000000000000
         C           -3.684442458416    -0.687222787745     0.181171101912    12.000000000000
         C           -2.460821202979    -1.403330650834     0.191714188101    12.000000000000
         C           -1.231166175052    -0.702159336890     0.179593809309    12.000000000000
         C           -0.007573788119    -1.417404321420     0.187050333613    12.000000000000
         C            1.223643553157    -0.715260849273     0.197055955562    12.000000000000
         C            2.445666486600    -1.429628761016     0.185305942802    12.000000000000
         C            3.676862540115    -0.726692903565     0.181165358407    12.000000000000
         C            6.132244683688    -0.739964311859     0.179637384194    12.000000000000
         C            4.903514982772    -1.444442992550     0.193478458734    12.000000000000
         C            8.599010685959     0.632618394658     0.184949436209    12.000000000000
         C            8.591741325369    -0.724836339203     0.186685816470    12.000000000000
         C            7.364858601658    -1.470318137615     0.186455639778    12.000000000000
         H           -9.528310134550     1.276861977183     0.183259133615     1.007825032230
         H            9.541406811874     1.174587016435     0.183897403948     1.007825032230
         C           -7.369842072500    -2.779530617943     0.189087113790    12.000000000000
         C           -4.924603271782    -2.808422729350     0.181355481354    12.000000000000
         C           -6.166626658399    -3.516637664835     0.187657321513    12.000000000000
         C           -3.702514522437    -3.524667021130     0.191679550540    12.000000000000
         C           -2.467651147846    -2.821311434813     0.179634912183    12.000000000000
         C           -0.015137636839    -2.833127117409     0.179916500692    12.000000000000
         C           -1.247126003958    -3.534717647572     0.191480454100    12.000000000000
         C            1.209240906912    -3.547900150653     0.194019483891    12.000000000000
         C            2.437331859423    -2.847627210185     0.179879725581    12.000000000000
         C            4.894298181039    -2.861108440295     0.180700465652    12.000000000000
         C            3.664611092309    -3.564205317541     0.193579885592    12.000000000000
         C            6.128634852014    -3.582569529727     0.186925727550    12.000000000000
         C            7.339668501964    -2.858398779380     0.188440953632    12.000000000000
         H           -9.541453273991    -1.174548938674     0.188221601335     1.007825032230
         H            9.528257705340    -1.276904545914     0.187935624231     1.007825032230
         H           -8.315169206580    -3.318135325222     0.193259342321     1.007825032230
         H            8.279150979760    -3.407126261903     0.192780509614     1.007825032230
         C           -6.144998351434    -4.927632744793     0.188983319573    12.000000000000
         C           -3.706787510729    -4.941247186127     0.179162351485    12.000000000000
         C           -4.955594220733    -5.643479445504     0.187129486130    12.000000000000
         C           -2.486125488958    -5.654771046419     0.192102022530    12.000000000000
         C           -1.254062498212    -4.956107522011     0.180926416544    12.000000000000
         C            1.201008411136    -4.969265860202     0.182107540802    12.000000000000
         C           -0.030340837145    -5.669505775148     0.189950740465    12.000000000000
         C            3.653745938597    -4.980729247424     0.182865540550    12.000000000000
         C            2.425488533144    -5.681160107537     0.192242471102    12.000000000000
         C            6.091961455079    -4.993243435396     0.189219954223    12.000000000000
         C            4.894972281879    -5.696333892967     0.187983758393    12.000000000000
         H           -7.089896550772    -5.466985314248     0.193386081254     1.007825032230
         H            7.031051046468    -5.542644008342     0.192799733987     1.007825032230
         C           -4.923549484930    -7.078806571687     0.186574717225    12.000000000000
         C           -2.485346250970    -7.087713549939     0.184064824789    12.000000000000
         C           -3.751690054511    -7.763932629646     0.184259503714    12.000000000000
         C           -0.037953119720    -7.099450346479     0.184280549937    12.000000000000
         C           -1.277960263133    -7.772889856676     0.182295857175    12.000000000000
         C            2.409440157995    -7.114007484012     0.185143750748    12.000000000000
         C            1.194745774421    -7.786170837572     0.182991459866    12.000000000000
         C            4.847616889766    -7.131247582589     0.187650565407    12.000000000000
         C            3.668467443144    -7.803773464953     0.185302131043    12.000000000000
         H           -5.869944513148    -7.613816070051     0.188118754090     1.007825032230
         H            5.788245462656    -7.676317661324     0.188777684889     1.007825032230
         H           -3.753531102181    -8.851057041246     0.182423589285     1.007825032230
         H           -1.284308568626    -8.860860864507     0.177868473317     1.007825032230
         H            1.189217411964    -8.874146092599     0.178898823176     1.007825032230
         H            3.658542452092    -8.890846106063     0.183647589621     1.007825032230

  Charge       = 0
  Multiplicity = 1
  Basis Set: JUN-CC-PVDZ
    Blend: JUN-CC-PVDZ
  Basis Set: (JUN-CC-PVDZ AUX)
    Blend: JUN-CC-PVDZ-JKFIT

    Orbital Energies [Eh]
    ---------------------

    Doubly Occupied:

       1A    -11.264021     2A    -11.263665     3A    -11.263662
       4A    -11.263258     5A    -11.263256     6A    -11.263222
       7A    -11.263069     8A    -11.263066     9A    -11.263063
      10A    -11.262843    11A    -11.262711    12A    -11.262707
      13A    -11.262221    14A    -11.262219    15A    -11.262184
      16A    -11.262183    17A    -11.262085    18A    -11.262079
      19A    -11.262032    20A    -11.261995    21A    -11.261993
      22A    -11.261877    23A    -11.261873    24A    -11.261733
      25A    -11.261725    26A    -11.261707    27A    -11.261700
      28A    -11.261659    29A    -11.261650    30A    -11.261557
      31A    -11.261535    32A    -11.261531    33A    -11.261504
      34A    -11.261502    35A    -11.261498    36A    -11.261479
      37A    -11.261319    38A    -11.261311    39A    -11.261306
      40A    -11.261300    41A    -11.261294    42A    -11.261290
      43A    -11.261269    44A    -11.261251    45A    -11.261247
      46A    -11.261223    47A    -11.261221    48A    -11.261214
      49A    -11.261024    50A    -11.260991    51A    -11.260987
      52A    -11.260908    53A    -11.260905    54A    -11.260845
      55A    -11.259897    56A    -11.259884    57A    -11.259881
      58A    -11.259851    59A    -11.259850    60A    -11.259833
      61A    -11.259268    62A    -11.259243    63A    -11.259239
      64A    -11.259187    65A    -11.259184    66A    -11.259155
      67A    -11.258899    68A    -11.258881    69A    -11.258879
      70A    -11.258851    71A    -11.258848    72A    -11.258836
      73A    -11.254521    74A    -11.254519    75A    -11.254515
      76A    -11.254514    77A    -11.254513    78A    -11.254512
      79A    -11.253639    80A    -11.253639    81A    -11.253636
      82A    -11.253635    83A    -11.253632    84A    -11.253631
      85A    -11.253555    86A    -11.253554    87A    -11.253552
      88A    -11.253551    89A    -11.253547    90A    -11.253547
      91A    -11.253049    92A    -11.253047    93A    -11.253043
      94A    -11.253042    95A    -11.253041    96A    -11.253040
      97A     -1.253851    98A     -1.238950    99A     -1.238948
     100A     -1.220434   101A     -1.220429   102A     -1.215337
     103A     -1.201021   104A     -1.195581   105A     -1.188070
     106A     -1.188068   107A     -1.173745   108A     -1.173743
     109A     -1.155577   110A     -1.155573   111A     -1.152613
     112A     -1.144705   113A     -1.144702   114A     -1.128529
     115A     -1.114665   116A     -1.113139   117A     -1.112404
     118A     -1.112390   119A     -1.111604   120A     -1.088388
     121A     -1.088374   122A     -1.076941   123A     -1.076940
     124A     -1.067569   125A     -1.067539   126A     -1.064888
     127A     -1.046768   128A     -1.046761   129A     -1.040443
     130A     -1.038717   131A     -1.038716   132A     -1.025183
     133A     -1.021286   134A     -1.021236   135A     -1.007149
     136A     -1.006780   137A     -1.003764   138A     -1.000436
     139A     -1.000389   140A     -0.991058   141A     -0.970935
     142A     -0.970887   143A     -0.955856   144A     -0.955801
     145A     -0.905535   146A     -0.905521   147A     -0.905494
     148A     -0.905479   149A     -0.904231   150A     -0.892297
     151A     -0.892238   152A     -0.890304   153A     -0.890247
     154A     -0.889413   155A     -0.872190   156A     -0.869045
     157A     -0.851514   158A     -0.847804   159A     -0.847783
     160A     -0.845543   161A     -0.842977   162A     -0.834533
     163A     -0.834520   164A     -0.828091   165A     -0.828087
     166A     -0.784512   167A     -0.784501   168A     -0.783604
     169A     -0.783578   170A     -0.782241   171A     -0.782220
     172A     -0.781969   173A     -0.766963   174A     -0.760720
     175A     -0.750511   176A     -0.733462   177A     -0.727034
     178A     -0.727020   179A     -0.725042   180A     -0.724512
     181A     -0.724493   182A     -0.718420   183A     -0.713701
     184A     -0.713695   185A     -0.699539   186A     -0.699527
     187A     -0.686036   188A     -0.685933   189A     -0.685930
     190A     -0.682147   191A     -0.682137   192A     -0.678714
     193A     -0.653582   194A     -0.650825   195A     -0.650795
     196A     -0.649742   197A     -0.649726   198A     -0.649539
     199A     -0.640847   200A     -0.640820   201A     -0.640063
     202A     -0.639143   203A     -0.635965   204A     -0.635938
     205A     -0.629105   206A     -0.617733   207A     -0.615280
     208A     -0.615260   209A     -0.608768   210A     -0.608762
     211A     -0.599106   212A     -0.599072   213A     -0.598692
     214A     -0.598561   215A     -0.598539   216A     -0.597961
     217A     -0.595041   218A     -0.595028   219A     -0.594683
     220A     -0.594159   221A     -0.591902   222A     -0.591899
     223A     -0.587321   224A     -0.577779   225A     -0.577769
     226A     -0.575634   227A     -0.575630   228A     -0.573353
     229A     -0.569588   230A     -0.568059   231A     -0.568035
     232A     -0.566705   233A     -0.566695   234A     -0.560895
     235A     -0.558664   236A     -0.558645   237A     -0.558407
     238A     -0.554328   239A     -0.550526   240A     -0.547458
     241A     -0.544238   242A     -0.535008   243A     -0.534971
     244A     -0.533491   245A     -0.533470   246A     -0.528045
     247A     -0.528030   248A     -0.527720   249A     -0.517087
     250A     -0.517053   251A     -0.515327   252A     -0.515321
     253A     -0.509613   254A     -0.509598   255A     -0.497994
     256A     -0.496407   257A     -0.496381   258A     -0.493741
     259A     -0.493730   260A     -0.489449   261A     -0.481424
     262A     -0.477396   263A     -0.477393   264A     -0.473962
     265A     -0.469395   266A     -0.466479   267A     -0.466474
     268A     -0.458757   269A     -0.446602   270A     -0.446542
     271A     -0.441000   272A     -0.440751   273A     -0.440725
     274A     -0.434664   275A     -0.433889   276A     -0.407334
     277A     -0.407310   278A     -0.386350   279A     -0.386301
     280A     -0.385713   281A     -0.385712   282A     -0.383720
     283A     -0.354302   284A     -0.354286   285A     -0.350613
     286A     -0.338027   287A     -0.335512   288A     -0.335442
     289A     -0.332689   290A     -0.332683   291A     -0.307001
     292A     -0.301869   293A     -0.301807   294A     -0.300831
     295A     -0.286135   296A     -0.256456   297A     -0.253411
     298A     -0.253358   299A     -0.204222   300A     -0.204134

  @DF-RHF Final Energy: -3650.34102482162098

   => Energetics <=

    Nuclear Repulsion Energy =          15611.4211649754324753
    One-Electron Energy =              -36072.1714345672153286
    Two-Electron Energy =               16810.4092447701623314
    Total Energy =                      -3650.3410248216205218
 Dipole X            :          0.0004188            0.0002304            0.0006492
 Dipole Y            :          0.0013986           -0.0013052            0.0000934
 Dipole Z            :       -210.8532133          210.8523476           -0.0008657
 Magnitude           :                                                    0.0010861

    SAPT Results
  --------------------------------------------------------------------------------------------------------
    Electrostatics               -206.39322140 [mEh]    -129.51370175 [kcal/mol]    -541.88532813 [kJ/mol]
      Elst10,r                   -206.39322140 [mEh]    -129.51370175 [kcal/mol]    -541.88532813 [kJ/mol]

    Exchange                      506.65111233 [mEh]     317.92837289 [kcal/mol]    1330.21231216 [kJ/mol]
      Exch10                      506.65111233 [mEh]     317.92837289 [kcal/mol]    1330.21231216 [kJ/mol]
      Exch10(S^2)                 482.17488492 [mEh]     302.56930830 [kcal/mol]    1265.94998595 [kJ/mol]

    Induction                     -43.55108389 [mEh]     -27.32871773 [kcal/mol]    -114.34335500 [kJ/mol]
      Ind20,r                    -290.27900558 [mEh]    -182.15282604 [kcal/mol]    -762.12742416 [kJ/mol]
      Exch-Ind20,r                212.15037036 [mEh]     133.12636726 [kcal/mol]     557.00072064 [kJ/mol]
      delta HF,r (2)               34.57755133 [mEh]      21.69774104 [kcal/mol]      90.78334852 [kJ/mol]

    Dispersion                    -55.64632125 [mEh]     -34.91859376 [kcal/mol]    -146.09939631 [kJ/mol]
      Disp20                      -86.59174844 [mEh]     -54.33714250 [kcal/mol]    -227.34660421 [kJ/mol]
      Exch-Disp20                  30.94542719 [mEh]      19.41854873 [kcal/mol]      81.24720790 [kJ/mol]
      Disp20 (SS)                 -43.29587422 [mEh]     -27.16857125 [kcal/mol]    -113.67330211 [kJ/mol]
      Disp20 (OS)                 -43.29587422 [mEh]     -27.16857125 [kcal/mol]    -113.67330211 [kJ/mol]
      Exch-Disp20 (SS)             15.28156418 [mEh]       9.58932629 [kcal/mol]      40.12174122 [kJ/mol]
      Exch-Disp20 (OS)             15.66386302 [mEh]       9.82922244 [kcal/mol]      41.12546669 [kJ/mol]

  Total HF                        256.70680704 [mEh]     161.08595340 [kcal/mol]     673.98362903 [kJ/mol]
  Total SAPT0                     201.06048579 [mEh]     126.16735964 [kcal/mol]     527.88423272 [kJ/mol]

  Special recipe for scaled SAPT0 (see Manual):
    Electrostatics sSAPT0        -206.39322140 [mEh]    -129.51370175 [kcal/mol]    -541.88532813 [kJ/mol]
    Exchange sSAPT0               506.65111233 [mEh]     317.92837289 [kcal/mol]    1330.21231216 [kJ/mol]
    Induction sSAPT0               -9.57571183 [mEh]      -6.00884989 [kcal/mol]     -25.14102795 [kJ/mol]
    Dispersion sSAPT0             -50.69048544 [mEh]     -31.80875984 [kcal/mol]    -133.08785118 [kJ/mol]
  Total sSAPT0                    239.99169366 [mEh]     150.59706140 [kcal/mol]     630.09810490 [kJ/mol]
  --------------------------------------------------------------------------------------------------------

*** Psi4 exiting successfully. Buy a developer a beer!
