                               Psi4 1.9 release

  ==> Input File <==

--------------------------------------------------------------------------
memory 32 GB # how much memory is available ! Depends on the nodes/cores !

molecule dimer {
# monomer A
+1 1    # Charge and multiplicity
C  0.680067 -1.215929 7.808042
C -0.680504 -1.215545 7.806014
N -1.085635  0.102779 7.805016
C  0.000108  0.884180 7.801740
C -2.477365  0.570758 7.755610
N  1.085222  0.102779 7.805016
H  1.385146 -2.033368 7.815870
H -1.385302 -2.033214 7.806204
H -0.000009  1.965269 7.799993
C  2.478117  0.567877 7.821908
H  2.490592  1.658130 7.794563
H  2.967028  0.220701 8.735354
H  3.001428  0.176405 6.946425
H -2.857359  0.490799 6.733539
H -3.082679 -0.042306 8.425694
H -2.518128  1.610706 8.082594
--
# monomer B
0 1     # Charge and multiplicity
C   1.22531237526482      0.70753866091955      0.00613762728373
C   1.22532433589282     -0.70753852257020     -0.00619318228664
C   -0.00000567409046      1.41496628609039     -0.00672680580738
C   2.45644923379077      1.41832825917820      0.00902448468363
C   0.00001130712078     -1.41497612663474      0.00347275151708
C   -1.22530046906674      0.70754574598412      0.00838914760619
C   2.45643823516184     -1.41832293188077     -0.00843833914343
C   -0.00000085313587      2.83680140328112     -0.00913035594137
C   3.68182717731192      0.70931832800114     -0.00808954934571
C   2.45512052870677      2.83422403348893     -0.00819210630633
C   3.68182158506039     -0.70933346742900      0.00798293467272
C   -1.22531311884624     -0.70752714354401     -0.00512042085974
C   1.22670006104402      3.54346985599427      0.00816696660346
C   0.00000526469929     -2.83678176723568      0.00832091913869
C   -2.45643555300670      1.41831729028492      0.00842454345199
C   2.45512389762097     -2.83422965658853      0.00783102630520
C   -1.22671388474763      3.54346943575023      0.00827029982280
C   4.91451777504333      1.42717324448953     -0.00160886631602
C   3.69315067131765      3.54279566454522     -0.00155906667985
C   -2.45643712022637     -1.41831290883911     -0.00846337726810
C   1.22670532178455     -3.54347386990643     -0.00780316414624
C   -2.45512491866593      2.83421703463423     -0.00818572995999
C   4.91452486062398     -1.42718653794377      0.00136387641845
C   1.22142509354026      4.97013443726031      0.00150231067809
C   4.89300870916237      2.82518837202648     -0.00039219795739
C   -1.22669652864725     -3.54347062507680     -0.00753595973677
C   -3.68181849668397      0.70932533873199     -0.00807686886569
C   3.69314758099218     -3.54280096939050      0.00148176697923
C   -1.22143177215231      4.97012866986289      0.00168580605083
C   6.13477145276790      0.68054831910577     -0.00083909176631
C   3.65678936045204      4.97295361556775     -0.00065042889723
C   -2.45512642789169     -2.83421472106065      0.00758666850712
C   -3.68181869921921     -0.70932533146830      0.00810055625144
C   4.89301309775526     -2.82519973363176      0.00021895393805
C   -0.00000059327114      5.65044773803267      0.00045449734393
C   6.13477559217374     -0.68055448207492      0.00042622874941
C   2.47813196269732      5.65357712333155      0.00063835075260
C   1.22142288457925     -4.97012668293268     -0.00129718634452
C   -3.69316190412301      3.54279732619245     -0.00139355922051
C   -1.22142804110313     -4.97011793159564     -0.00140994817719
C   -4.91452132810043      1.42717581899491     -0.00153192130862
C   3.65678749952045     -4.97295485423912      0.00080007163680
C   -2.47813805026426      5.65357479452875      0.00092287576113
C   -3.69314125872231     -3.54278984697859      0.00136564082345
C   -4.91451200321153     -1.42718062802730      0.00139857359209
C   -0.00000552908399     -5.65043791501335      0.00005899322272
C   -4.89302000425900      2.82518897091939     -0.00040227981744
C   2.47812647313991     -5.65357317188818     -0.00029052915548
C   -3.65679823041642      4.97295655404175     -0.00047374852278
C   -4.89299899901461     -2.82519139505969      0.00006491824035
C   -2.47812801824129     -5.65356579800621     -0.00056571680280
C   -6.13477002348955      0.68054913825639     -0.00086464346868
C   -3.65678835334731     -4.97294365097028      0.00058578382008
C   -6.13476456307132     -0.68055354348201      0.00040575295444
H   5.83528897565761      3.36927626695423      0.00396712770529
H   7.07385965258860      1.22821762089947     -0.00037744837300
H   4.60066374401555      5.51238117445323     -0.00014522814529
H   5.83528386714679     -3.36930568472863     -0.00423551337640
H   -0.00001167146422      6.73853104613662     -0.00389474766392
H   7.07386165167227     -1.22822657074368     -0.00008250934481
H   2.47331421164041      6.74068466339473      0.00017162982210
H   4.60066897122302     -5.51237575717576      0.00039007446835
H   -2.47331820069565      6.74068209160650      0.00047297644710
H   -0.00000978838621     -6.73852780445195      0.00458867820736
H   -5.83530143450167      3.36927132229595      0.00410314985360
H   2.47330840367253     -6.74068500242887      0.00027980126949
H   -4.60067436136587      5.51237839860371      0.00002010017831
H   -5.83527902699321     -3.36928859177951     -0.00451481925734
H   -2.47329986759855     -6.74067870613986     -0.00016951527498
H   -7.07385728692578      1.22822084484047     -0.00046143985387
H   -4.60067330624313     -5.51236229778631      0.00021776644566
H   -7.07385645456741     -1.22822025997701     -0.00017736581114

    units angstrom      # Angstroms are the default
    no_reorient         # Geometry fixed, default
    symmetry c1         # C1 symmetry, default
}

set {
    scf_type DF         # Density fitting, faster than exact integrals
    freeze_core True    # Freeze core electrons
    basis jun-cc-pVDZ   # Jun-cc-pVDZ basis set, recommended for sSAPT0 in https://doi.org/10.1063/1.4867135
}

energy('ssapt0')        # Compute sSAPT0 energy, includes also SAPT0
--------------------------------------------------------------------------

  //              Dimer HF             //
    Molecular point group: c1
  Charge       = 1
  Multiplicity = 1
  Basis Set: JUN-CC-PVDZ
    Blend: JUN-CC-PVDZ
  Basis Set: (JUN-CC-PVDZ AUX)
    Blend: JUN-CC-PVDZ-JKFIT
  @DF-RHF Final Energy: -2359.19597154282565
    Total Energy =                      -2359.1959715428256459
 Dipole X            :          0.0022712            0.0006313            0.0029025
 Dipole Y            :         -1.4964716            1.8864948            0.3900232
 Dipole Z            :        -28.4340685           40.6029315           12.1688630
 Magnitude           :                                                   12.1751121
  //            Monomer A HF           //
    Molecular point group: c1
  Multiplicity = 1
  Basis Set: JUN-CC-PVDZ
    Blend: JUN-CC-PVDZ
  Basis Set: (JUN-CC-PVDZ AUX)
    Blend: JUN-CC-PVDZ-JKFIT
  @DF-RHF Final Energy:  -303.29719820738580
    Total Energy =                       -303.2971982073858044
  //            Monomer B HF           //
    Molecular point group: c1

    Geometry (in Angstrom), charge = 0, multiplicity = 1:

       Center              X                  Y                   Z               Mass
    ------------   -----------------  -----------------  -----------------  -----------------
      Gh(C)           0.680066520158    -1.215933861162     6.815932039550    12.000000000000
      Gh(C)          -0.680504479842    -1.215549861162     6.813904039550    12.000000000000
      Gh(N)          -1.085635479842     0.102774138838     6.812906039550    14.003074004430
      Gh(C)           0.000107520158     0.884175138838     6.809630039550    12.000000000000
      Gh(C)          -2.477365479842     0.570753138838     6.763500039550    12.000000000000
      Gh(N)           1.085221520158     0.102774138838     6.812906039550    14.003074004430
      Gh(H)           1.385145520158    -2.033372861162     6.823760039550     1.007825032230
      Gh(H)          -1.385302479842    -2.033218861162     6.814094039550     1.007825032230
      Gh(H)          -0.000009479842     1.965264138838     6.807883039550     1.007825032230
      Gh(C)           2.478116520158     0.567872138838     6.829798039550    12.000000000000
      Gh(H)           2.490591520158     1.658125138838     6.802453039550     1.007825032230
      Gh(H)           2.967027520158     0.220696138838     7.743244039550     1.007825032230
      Gh(H)           3.001427520158     0.176400138838     5.954315039550     1.007825032230
      Gh(H)          -2.857359479842     0.490794138838     5.741429039550     1.007825032230
      Gh(H)          -3.082679479842    -0.042310861162     7.433584039550     1.007825032230
      Gh(H)          -2.518128479842     1.610701138838     7.090484039550     1.007825032230
         C            1.225311895423     0.707533799757    -0.985972333167    12.000000000000
         C            1.225323856051    -0.707543383733    -0.998303142737    12.000000000000
         C           -0.000006153932     1.414961424928    -0.998836766258    12.000000000000
         C            2.456448753949     1.418323398016    -0.983085475767    12.000000000000
         C            0.000010827279    -1.414980987797    -0.988637208933    12.000000000000
         C           -1.225300948908     0.707540884822    -0.983720812844    12.000000000000
         C            2.456437755320    -1.418327793043    -1.000548299594    12.000000000000
         C           -0.000001332978     2.836796542119    -1.001240316392    12.000000000000
         C            3.681826697470     0.709313466839    -1.000199509796    12.000000000000
         C            2.455120048865     2.834219172327    -1.000302066757    12.000000000000
         C            3.681821105219    -0.709338328591    -0.984127025778    12.000000000000
         C           -1.225313598688    -0.707532004706    -0.997230381310    12.000000000000
         C            1.226699581202     3.543464994832    -0.983942993847    12.000000000000
         C            0.000004784858    -2.836786628398    -0.983789041312    12.000000000000
         C           -2.456436032848     1.418312429123    -0.983685416998    12.000000000000
         C            2.455123417779    -2.834234517751    -0.984278934145    12.000000000000
         C           -1.226714364589     3.543464574588    -0.983839660627    12.000000000000
         C            4.914517295202     1.427168383327    -0.993718826766    12.000000000000
         C            3.693150191476     3.542790803383    -0.993669027130    12.000000000000
         C           -2.456437600068    -1.418317770001    -1.000573337718    12.000000000000
         C            1.226704841943    -3.543478731069    -0.999913124596    12.000000000000
         C           -2.455125398508     2.834212173472    -1.000295690410    12.000000000000
         C            4.914524380782    -1.427191399106    -0.990746084032    12.000000000000
         C            1.221424613699     4.970129576098    -0.990607649772    12.000000000000
         C            4.893008229321     2.825183510864    -0.992502158408    12.000000000000
         C           -1.226697008489    -3.543475486239    -0.999645920187    12.000000000000
         C           -3.681818976526     0.709320477570    -1.000186829316    12.000000000000
         C            3.693147101150    -3.542805830553    -0.990628193471    12.000000000000
         C           -1.221432251994     4.970123808701    -0.990424154399    12.000000000000
         C            6.134770972926     0.680543457943    -0.992949052217    12.000000000000
         C            3.656788880610     4.972948754405    -0.992760389347    12.000000000000
         C           -2.455126907733    -2.834219582223    -0.984523291943    12.000000000000
         C           -3.681819179061    -0.709330192631    -0.984009404199    12.000000000000
         C            4.893012617914    -2.825204594794    -0.991891006512    12.000000000000
         C           -0.000001073113     5.650442876870    -0.991655463106    12.000000000000
         C            6.134775112332    -0.680559343237    -0.991683731701    12.000000000000
         C            2.478131482856     5.653572262169    -0.991471609698    12.000000000000
         C            1.221422404738    -4.970131544095    -0.993407146795    12.000000000000
         C           -3.693162383965     3.542792465030    -0.993503519671    12.000000000000
         C           -1.221428520945    -4.970122792758    -0.993519908627    12.000000000000
         C           -4.914521807942     1.427170957833    -0.993641881759    12.000000000000
         C            3.656787019679    -4.972959715401    -0.991309888813    12.000000000000
         C           -2.478138530106     5.653569933366    -0.991187084689    12.000000000000
         C           -3.693141738564    -3.542794708141    -0.990744319627    12.000000000000
         C           -4.914512483053    -1.427185489190    -0.990711386858    12.000000000000
         C           -0.000006008926    -5.650442776176    -0.992050967228    12.000000000000
         C           -4.893020484101     2.825184109757    -0.992512240268    12.000000000000
         C            2.478125993298    -5.653578033051    -0.992400489606    12.000000000000
         C           -3.656798710258     4.972951692879    -0.992583708973    12.000000000000
         C           -4.892999478856    -2.825196256222    -0.992045042210    12.000000000000
         C           -2.478128498083    -5.653570659169    -0.992675677253    12.000000000000
         C           -6.134770503331     0.680544277094    -0.992974603919    12.000000000000
         C           -3.656788833189    -4.972948512133    -0.991524176630    12.000000000000
         C           -6.134765042913    -0.680558404644    -0.991704207496    12.000000000000
         H            5.835288495816     3.369271405792    -0.988142832745     1.007825032230
         H            7.073859172747     1.228212759737    -0.992487408823     1.007825032230
         H            4.600663264174     5.512376313291    -0.992255188596     1.007825032230
         H            5.835283387305    -3.369310545891    -0.996345473827     1.007825032230
         H           -0.000012151306     6.738526184974    -0.996004708114     1.007825032230
         H            7.073861171831    -1.228231431906    -0.992192469795     1.007825032230
         H            2.473313731799     6.740679802232    -0.991938330628     1.007825032230
         H            4.600668491381    -5.512380618338    -0.991719885982     1.007825032230
         H           -2.473318680537     6.740677230444    -0.991636984003     1.007825032230
         H           -0.000010268228    -6.738532665614    -0.987521282243     1.007825032230
         H           -5.835301914343     3.369266461134    -0.988006810597     1.007825032230
         H            2.473307923831    -6.740689863591    -0.991830159181     1.007825032230
         H           -4.600674841208     5.512373537441    -0.992089860272     1.007825032230
         H           -5.835279506835    -3.369293452942    -0.996624779708     1.007825032230
         H           -2.473300347440    -6.740683567302    -0.992279475725     1.007825032230
         H           -7.073857766768     1.228215983678    -0.992571400304     1.007825032230
         H           -4.600673786085    -5.512367158949    -0.991892194005     1.007825032230
         H           -7.073856934409    -1.228225121139    -0.992287326261     1.007825032230

  Charge       = 0
  Multiplicity = 1
  Basis Set: JUN-CC-PVDZ
    Blend: JUN-CC-PVDZ
  Basis Set: (JUN-CC-PVDZ AUX)
    Blend: JUN-CC-PVDZ-JKFIT

    Orbital Energies [Eh]
    ---------------------

    Doubly Occupied:

       1A    -11.260674     2A    -11.260231     3A    -11.260230
       4A    -11.259520     5A    -11.259520     6A    -11.259350
       7A    -11.259141     8A    -11.259063     9A    -11.259062
      10A    -11.258737    11A    -11.258734    12A    -11.258665
      13A    -11.258603    14A    -11.258597    15A    -11.258595
      16A    -11.258566    17A    -11.258560    18A    -11.258543
      19A    -11.258530    20A    -11.258525    21A    -11.258520
      22A    -11.258422    23A    -11.258418    24A    -11.258120
      25A    -11.257460    26A    -11.257398    27A    -11.257397
      28A    -11.257263    29A    -11.257262    30A    -11.257178
      31A    -11.256555    32A    -11.256484    33A    -11.256484
      34A    -11.256374    35A    -11.256374    36A    -11.256327
      37A    -11.252401    38A    -11.252400    39A    -11.252399
      40A    -11.252397    41A    -11.252395    42A    -11.252393
      43A    -11.251535    44A    -11.251532    45A    -11.251532
      46A    -11.251526    47A    -11.251525    48A    -11.251521
      49A    -11.250963    50A    -11.250962    51A    -11.250960
      52A    -11.250958    53A    -11.250956    54A    -11.250955
      55A     -1.244298    56A     -1.220017    57A     -1.220016
      58A     -1.189725    59A     -1.189717    60A     -1.181168
      61A     -1.157724    62A     -1.149156    63A     -1.135707
      64A     -1.135700    65A     -1.113357    66A     -1.113353
      67A     -1.082631    68A     -1.082623    69A     -1.078814
      70A     -1.066141    71A     -1.066136    72A     -1.039580
      73A     -1.024491    74A     -1.021996    75A     -1.021953
      76A     -1.017889    77A     -1.012951    78A     -0.987222
      79A     -0.987176    80A     -0.962051    81A     -0.962001
      82A     -0.894470    83A     -0.894443    84A     -0.888168
      85A     -0.886414    86A     -0.886356    87A     -0.881602
      88A     -0.881554    89A     -0.862075    90A     -0.837553
      91A     -0.818392    92A     -0.816834    93A     -0.812341
      94A     -0.812332    95A     -0.794856    96A     -0.794846
      97A     -0.746840    98A     -0.745067    99A     -0.733634
     100A     -0.733626   101A     -0.732355   102A     -0.732331
     103A     -0.716702   104A     -0.699152   105A     -0.699140
     106A     -0.693778   107A     -0.693762   108A     -0.661401
     109A     -0.653336   110A     -0.651381   111A     -0.650419
     112A     -0.650413   113A     -0.639531   114A     -0.639528
     115A     -0.629915   116A     -0.627727   117A     -0.627711
     118A     -0.606457   119A     -0.605936   120A     -0.601868
     121A     -0.599921   122A     -0.599889   123A     -0.593825
     124A     -0.591457   125A     -0.591445   126A     -0.585421
     127A     -0.576418   128A     -0.576415   129A     -0.567480
     130A     -0.567465   131A     -0.566168   132A     -0.566148
     133A     -0.558943   134A     -0.555025   135A     -0.555019
     136A     -0.538762   137A     -0.538760   138A     -0.538290
     139A     -0.538284   140A     -0.529898   141A     -0.528206
     142A     -0.523053   143A     -0.523046   144A     -0.500670
     145A     -0.495720   146A     -0.493409   147A     -0.487948
     148A     -0.485268   149A     -0.481949   150A     -0.481941
     151A     -0.470439   152A     -0.470422   153A     -0.451254
     154A     -0.451176   155A     -0.439190   156A     -0.439181
     157A     -0.404871   158A     -0.404848   159A     -0.403492
     160A     -0.375544   161A     -0.375542   162A     -0.349249
     163A     -0.337717   164A     -0.336685   165A     -0.336627
     166A     -0.311225   167A     -0.298212   168A     -0.284482
     169A     -0.284428   170A     -0.225050   171A     -0.224985

  @DF-RHF Final Energy: -2055.89165494058398

   => Energetics <=

    Nuclear Repulsion Energy =           6452.5568002797772351
    One-Electron Energy =              -15636.4258802479598671
    Two-Electron Energy =                7127.9774250275986560
    Total Energy =                      -2055.8916549405839760
 Dipole X            :          0.0000981           -0.0000085            0.0000896
 Dipole Y            :          0.0028644           -0.0028843           -0.0000199
 Dipole Z            :        641.1875566         -641.1885531           -0.0009966
 Magnitude           :                                                    0.0010008

    SAPT Results
  --------------------------------------------------------------------------------------------------------
    Electrostatics                 -5.76909878 [mEh]      -3.62016414 [kcal/mol]     -15.14676675 [kJ/mol]
      Elst10,r                     -5.76909878 [mEh]      -3.62016414 [kcal/mol]     -15.14676675 [kJ/mol]

    Exchange                       -0.00013289 [mEh]      -0.00008339 [kcal/mol]      -0.00034891 [kJ/mol]
      Exch10                       -0.00013289 [mEh]      -0.00008339 [kcal/mol]      -0.00034891 [kJ/mol]
      Exch10(S^2)                  -0.00013289 [mEh]      -0.00008339 [kcal/mol]      -0.00034891 [kJ/mol]

    Induction                      -1.34916319 [mEh]      -0.84661268 [kcal/mol]      -3.54222746 [kJ/mol]
      Ind20,r                      -1.33561259 [mEh]      -0.83810955 [kcal/mol]      -3.50665037 [kJ/mol]
      Exch-Ind20,r                  0.00007773 [mEh]       0.00004877 [kcal/mol]       0.00020407 [kJ/mol]
      delta HF,r (2)               -0.01362832 [mEh]      -0.00855190 [kcal/mol]      -0.03578116 [kJ/mol]

    Dispersion                     -0.71105228 [mEh]      -0.44619204 [kcal/mol]      -1.86686751 [kJ/mol]
      Disp20                       -0.71108107 [mEh]      -0.44621011 [kcal/mol]      -1.86694311 [kJ/mol]
      Exch-Disp20                   0.00002879 [mEh]       0.00001807 [kcal/mol]       0.00007559 [kJ/mol]
      Disp20 (SS)                  -0.35554054 [mEh]      -0.22310506 [kcal/mol]      -0.93347155 [kJ/mol]
      Disp20 (OS)                  -0.35554054 [mEh]      -0.22310506 [kcal/mol]      -0.93347155 [kJ/mol]
      Exch-Disp20 (SS)              0.00002162 [mEh]       0.00001357 [kcal/mol]       0.00005676 [kJ/mol]
      Exch-Disp20 (OS)              0.00000717 [mEh]       0.00000450 [kcal/mol]       0.00001883 [kJ/mol]

  Total HF                         -7.11839486 [mEh]      -4.46686021 [kcal/mol]     -18.68934312 [kJ/mol]
  Total SAPT0                      -7.82944714 [mEh]      -4.91305225 [kcal/mol]     -20.55621063 [kJ/mol]

  Special recipe for scaled SAPT0 (see Manual):
    Electrostatics sSAPT0          -5.76909878 [mEh]      -3.62016414 [kcal/mol]     -15.14676675 [kJ/mol]
    Exchange sSAPT0                -0.00013289 [mEh]      -0.00008339 [kcal/mol]      -0.00034891 [kJ/mol]
    Induction sSAPT0               -1.34916319 [mEh]      -0.84661268 [kcal/mol]      -3.54222746 [kJ/mol]
    Dispersion sSAPT0              -0.71105228 [mEh]      -0.44619204 [kcal/mol]      -1.86686751 [kJ/mol]
  Total sSAPT0                     -7.82944714 [mEh]      -4.91305225 [kcal/mol]     -20.55621063 [kJ/mol]
  --------------------------------------------------------------------------------------------------------

*** Psi4 exiting successfully. Buy a developer a beer!
