                               Psi4 1.9 release

  ==> Input File <==

--------------------------------------------------------------------------
memory 64 GB # how much memory is available ! Depends on the nodes/cores !

molecule dimer {
# monomer A
+1 1    # Charge and multiplicity
C  0.680067 -1.215929 6.008042
C -0.680504 -1.215545 6.006014
N -1.085635  0.102779 6.005016
C  0.000108  0.884180 6.001740
C -2.477365  0.570758 5.955610
N  1.085222  0.102779 6.005016
H  1.385146 -2.033368 6.015870
H -1.385302 -2.033214 6.006204
H -0.000009  1.965269 5.999993
C  2.478117  0.567877 6.021908
H  2.490592  1.658130 5.994563
H  2.967028  0.220701 6.935354
H  3.001428  0.176405 5.146425
H -2.857359  0.490799 4.933539
H -3.082679 -0.042306 6.625694
H -2.518128  1.610706 6.282594
--
# monomer B
0 1     # Charge and multiplicity
C   -3.66844126402057      7.80375217008252      0.00190004133558
C   -4.84759871934653      7.13124183134024     -0.00046653359696
C   -4.89495929917518      5.69633040353158     -0.00103944469517
C   -3.65374067877320      4.98073034095895      0.00662099703436
C   -2.40942512149445      7.11398103667468      0.00209438359570
C   -2.42547734410473      5.68112195090346     -0.00491050527438
C   -1.19474401643570      7.78614419430947      0.00356656413763
C   0.03795902893699      7.09942164575698      0.00139585983271
C   0.03033258741920      5.66948955970466     -0.00408752508301
C   -1.20098450790502      4.96927034791531      0.00488220885047
C   1.27795782581485      7.77285944319479      0.00277170839332
C   2.48535808472416      7.08769688523756      0.00049722048857
C   2.48612868491717      5.65477081024076     -0.00644052849921
C   1.25408291964399      4.95607811366431      0.00518741308898
C   3.75171459140595      7.76391215098033      0.00062407186893
C   4.92356605618520      7.07878077698995     -0.00143240883900
C   4.95560727132542      5.64344746336949     -0.00159282164606
C   3.70680153420475      4.94121020833308      0.00349873852374
H   -3.65852113775815      8.89082741913536      0.00358502958574
H   -1.18921332975660      8.87412108735996      0.00753844057883
H   1.28429423888630      8.86083343548850      0.00693053253426
H   3.75354208679975      8.85103527897216      0.00214659618464
H   5.86995870320703      7.61379483465560     -0.00235777588134
H   -5.78823170750226      7.67630221293400     -0.00202638095293
C   -6.09197395869619      4.99326001364347     -0.00291168518608
C   -6.12866148031747      3.58258016879823     -0.00171050815740
C   -3.66457974004527      3.56418217974434     -0.00463560277484
C   -4.89429820469869      2.86108077590057      0.00453338221034
C   -2.43733499489796      2.84761165708481      0.00719617576166
C   -1.20922785759670      3.54788693497833     -0.00648285103018
C   1.24714157216223      3.53468075142962     -0.00729145743546
C   0.01517603956900      2.83311183930540      0.00439272578912
C   2.46764517244071      2.82128997725533      0.00449278391269
C   3.70254947457969      3.52466015442405     -0.00899517692985
C   6.14498038638375      4.92757236613191     -0.00282626685777
C   6.16658835886151      3.51658447594213     -0.00065971342101
C   4.92460995845939      2.80840792535402      0.00587903281610
H   7.08990550964105      5.46688776622306     -0.00658814770723
H   -7.03104175110130      5.54268795285765     -0.00714490013730
C   -7.33969804112295      2.85841153457957     -0.00333767559888
C   -7.36488195805880      1.47032337158330     -0.00157213747140
C   -4.90350460894690      1.44442681216000     -0.00628840166334
C   -6.13225715261081      0.73993935705394      0.00600164231964
C   -3.67687480051673      0.72669714267312      0.00433931473643
C   -2.44565658606518      1.42964113326212     -0.00597039546461
C   -1.22360068130162      0.71532450163492      0.00545886906656
C   0.00763786931376      1.41738314923765      0.00392452278437
C   1.23121980774686      0.70211669058719     -0.01490206287210
C   2.46082110053113      1.40329203612573      0.00460244601878
C   3.68443025419614      0.68719842821222      0.00377365974158
C   4.91870890153864      1.39173456118907     -0.00862816189375
C   7.36980207796101      2.77948220318441     -0.00242013321349
C   7.38016266612146      1.39121750785509     -0.00087345036788
C   6.13979953912259      0.67411862320065      0.00545489144369
H   -8.27919079934664      3.40711804112415     -0.00763522772059
H   8.31511347147953      3.31811809662368     -0.00663070901292
C   -8.59175593758115      0.72483255304480     -0.00123170985383
C   -8.59902460370342     -0.63263980622873      0.00089141472904
C   -6.13981313911873     -0.67413663715361     -0.00609792660607
C   -7.38018411213749     -1.39126618958160      0.00131813493501
C   -4.91868448025621     -1.39175501803000      0.00624257154343
C   -3.68443829568458     -0.68723731573599     -0.00478966852105
C   -2.46081704024768     -1.40334517882457      0.00575341766833
C   -1.23116201232071     -0.70217386488055     -0.00636696112346
C   -0.00756962538737     -1.41741884941102      0.00108956317991
C   1.22364771588843     -0.71527537726392      0.01109518512883
C   2.44567064933149     -1.42964328900682     -0.00065482763106
C   3.67686670284649     -0.72670743155550     -0.00479541202602
C   6.13224884641929     -0.73997883984993     -0.00632338623858
C   4.90351914550401     -1.44445752054090      0.00751768830159
C   8.59901484869081      0.63260386666793     -0.00101133422380
C   8.59174548810050     -0.72485086719319      0.00072504603735
C   7.36486276438985     -1.47033266560598      0.00049486934466
H   -9.52830597181814      1.27684744919284     -0.00270163681798
H   9.54141097460619      1.17457248844457     -0.00206336648518
C   -7.36983790976868     -2.77954514593389      0.00312634335708
C   -4.92459910905015     -2.80843725734101     -0.00460528907921
C   -6.16662249566744     -3.51665219282533      0.00169655107992
C   -3.70251035970491     -3.52468154912026      0.00571878010666
C   -2.46764698511392     -2.82132596280400     -0.00632585824990
C   -0.01513347410770     -2.83314164539971     -0.00604426974092
C   -1.24712184122656     -3.53473217556300      0.00551968366725
C   1.20924506964357     -3.54791467864352      0.00805871345849
C   2.43733602215464     -2.84764173817541     -0.00608104485234
C   4.89430234377080     -2.86112296828604     -0.00526030478103
C   3.66461525504104     -3.56421984553201      0.00761911515957
C   6.12863901474565     -3.58258405771778      0.00096495711699
C   7.33967266469532     -2.85841330737039      0.00248018319869
H   -9.54144911125902     -1.17456346666430      0.00226083090216
H   9.52826186807155     -1.27691907390448      0.00197485379837
H   -8.31516504384864     -3.31814985321231      0.00729857188773
H   8.27915514249207     -3.40714078989363      0.00681973918158
C   -6.14499418870218     -4.92764727278338      0.00302254913999
C   -3.70678334799751     -4.94126171411716     -0.00679841894792
C   -4.95559005800169     -5.64349397349412      0.00116871569699
C   -2.48612132622665     -5.65478557440947      0.00614125209662
C   -1.25405833548005     -4.95612205000132     -0.00503435388927
C   1.20101257386816     -4.96928038819302     -0.00385322963129
C   -0.03033667441341     -5.66952030313900      0.00398997003238
C   3.65375010132847     -4.98074377541453     -0.00309522988330
C   2.42549269587528     -5.68117463552727      0.00628170066869
C   6.09196561781097     -4.99325796338655      0.00325918379042
C   4.89497644461045     -5.69634842095790      0.00202298796027
H   -7.08989238804069     -5.46699984223871      0.00742531082125
H   7.03105520920009     -5.54265853633254      0.00683896355417
C   -4.92354532219813     -7.07882109967734      0.00061394679214
C   -2.48534208823777     -7.08772807792913     -0.00189594564379
C   -3.75168589177895     -7.76394715763627     -0.00170126671874
C   -0.03794895698805     -7.09946487446944     -0.00168022049625
C   -1.27795610040136     -7.77290438466689     -0.00366491325785
C   2.40944432072629     -7.11402201200282     -0.00081701968533
C   1.19474993715296     -7.78618536556242     -0.00296931056689
C   4.84762105249800     -7.13126211057943      0.00168979497423
C   3.66847160587561     -7.80378799294376     -0.00065863938960
H   -5.86994035041618     -7.61383059804164      0.00215798365757
H   5.78824962538815     -7.67633218931421      0.00281691445618
H   -3.75352693944918     -8.85107156923607     -0.00353718114765
H   -1.28430440589466     -8.86087539249706     -0.00809229711623
H   1.18922157469537     -8.87416062058945     -0.00706194725726
H   3.65854661482387     -8.89086063405326     -0.00231318081200

    units angstrom      # Angstroms are the default
    no_reorient         # Geometry fixed, default
    symmetry c1         # C1 symmetry, default
}

set {
    scf_type DF         # Density fitting, faster than exact integrals
    freeze_core True    # Freeze core electrons
    basis jun-cc-pVDZ   # Jun-cc-pVDZ basis set, recommended for sSAPT0 in https://doi.org/10.1063/1.4867135
}

energy('ssapt0')        # Compute sSAPT0 energy, includes also SAPT0
--------------------------------------------------------------------------

  //              Dimer HF             //
    Molecular point group: c1
  Charge       = 1
  Multiplicity = 1
  Basis Set: JUN-CC-PVDZ
    Blend: JUN-CC-PVDZ
  Basis Set: (JUN-CC-PVDZ AUX)
    Blend: JUN-CC-PVDZ-JKFIT
  @DF-RHF Final Energy: -3953.64923594968423
    Total Energy =                      -3953.6492359496842255
 Dipole X            :          0.0018212            0.0004804            0.0023016
 Dipole Y            :         -1.5597390            1.8866171            0.3268781
 Dipole Z            :        -27.0848420           36.3826546            9.2978126
 Magnitude           :                                                    9.3035570
  //            Monomer A HF           //
    Molecular point group: c1
  Multiplicity = 1
  Basis Set: JUN-CC-PVDZ
    Blend: JUN-CC-PVDZ
  Basis Set: (JUN-CC-PVDZ AUX)
    Blend: JUN-CC-PVDZ-JKFIT
  @DF-RHF Final Energy:  -303.29743851212129
    Total Energy =                       -303.2974385121212890
  //            Monomer B HF           //
    Molecular point group: c1

    Geometry (in Angstrom), charge = 0, multiplicity = 1:

       Center              X                  Y                   Z               Mass
    ------------   -----------------  -----------------  -----------------  -----------------
      Gh(C)           0.680062820275    -1.215917226251     5.550585235442    12.000000000000
      Gh(C)          -0.680508179725    -1.215533226251     5.548557235442    12.000000000000
      Gh(N)          -1.085639179725     0.102790773749     5.547559235442    14.003074004430
      Gh(C)           0.000103820275     0.884191773749     5.544283235442    12.000000000000
      Gh(C)          -2.477369179725     0.570769773749     5.498153235442    12.000000000000
      Gh(N)           1.085217820275     0.102790773749     5.547559235442    14.003074004430
      Gh(H)           1.385141820275    -2.033356226251     5.558413235442     1.007825032230
      Gh(H)          -1.385306179725    -2.033202226251     5.548747235442     1.007825032230
      Gh(H)          -0.000013179725     1.965280773749     5.542536235442     1.007825032230
      Gh(C)           2.478112820275     0.567888773749     5.564451235442    12.000000000000
      Gh(H)           2.490587820275     1.658141773750     5.537106235442     1.007825032230
      Gh(H)           2.967023820275     0.220712773749     6.477897235442     1.007825032230
      Gh(H)           3.001423820275     0.176416773749     4.688968235442     1.007825032230
      Gh(H)          -2.857363179725     0.490810773749     4.476082235442     1.007825032230
      Gh(H)          -3.082683179725    -0.042294226251     6.168237235442     1.007825032230
      Gh(H)          -2.518132179725     1.610717773749     5.825137235442     1.007825032230
         C           -3.668445443746     7.803763943832    -0.455556723223    12.000000000000
         C           -4.847602899072     7.131253605090    -0.457923298155    12.000000000000
         C           -4.894963478901     5.696342177281    -0.458496209254    12.000000000000
         C           -3.653744858499     4.980742114708    -0.450835767524    12.000000000000
         C           -2.409429301220     7.113992810424    -0.455362380963    12.000000000000
         C           -2.425481523830     5.681133724653    -0.462367269833    12.000000000000
         C           -1.194748196161     7.786155968059    -0.453890200421    12.000000000000
         C            0.037954849212     7.099433419506    -0.456060904726    12.000000000000
         C            0.030328407694     5.669501333454    -0.461544289641    12.000000000000
         C           -1.200988687630     4.969282121665    -0.452574555708    12.000000000000
         C            1.277953646089     7.772871216944    -0.454685056165    12.000000000000
         C            2.485353904999     7.087708658987    -0.456959544070    12.000000000000
         C            2.486124505192     5.654782583990    -0.463897293058    12.000000000000
         C            1.254078739919     4.956089887414    -0.452269351469    12.000000000000
         C            3.751710411681     7.763923924730    -0.456832692689    12.000000000000
         C            4.923561876460     7.078792550739    -0.458889173397    12.000000000000
         C            4.955603091600     5.643459237119    -0.459049586204    12.000000000000
         C            3.706797354479     4.941221982083    -0.453958026035    12.000000000000
         H           -3.658525317484     8.890839192885    -0.453871734973     1.007825032230
         H           -1.189217509482     8.874132861109    -0.449918323980     1.007825032230
         H            1.284290059161     8.860845209238    -0.450526232024     1.007825032230
         H            3.753537907074     8.851047052722    -0.455310168374     1.007825032230
         H            5.869954523482     7.613806608405    -0.459814540440     1.007825032230
         H           -5.788235887228     7.676313986684    -0.459483145511     1.007825032230
         C           -6.091978138422     4.993271787393    -0.460368449744    12.000000000000
         C           -6.128665660043     3.582591942548    -0.459167272716    12.000000000000
         C           -3.664583919771     3.564193953494    -0.462092367333    12.000000000000
         C           -4.894302384424     2.861092549650    -0.452923382348    12.000000000000
         C           -2.437339174623     2.847623430834    -0.450260588797    12.000000000000
         C           -1.209232037322     3.547898708728    -0.463939615589    12.000000000000
         C            1.247137392437     3.534692525179    -0.464748221994    12.000000000000
         C            0.015171859844     2.833123613055    -0.453064038769    12.000000000000
         C            2.467640992715     2.821301751005    -0.452963980646    12.000000000000
         C            3.702545294854     3.524671928174    -0.466451941488    12.000000000000
         C            6.144976206658     4.927584139881    -0.460283031416    12.000000000000
         C            6.166584179136     3.516596249692    -0.458116477979    12.000000000000
         C            4.924605778734     2.808419699104    -0.451577731742    12.000000000000
         H            7.089901329916     5.466899539973    -0.464044912266     1.007825032230
         H           -7.031045930827     5.542699726607    -0.464601664696     1.007825032230
         C           -7.339702220848     2.858423308329    -0.460794440157    12.000000000000
         C           -7.364886137784     1.470335145333    -0.459028902030    12.000000000000
         C           -4.903508788672     1.444438585909    -0.463745166222    12.000000000000
         C           -6.132261332336     0.739951130803    -0.451455122239    12.000000000000
         C           -3.676878980242     0.726708916423    -0.453117449822    12.000000000000
         C           -2.445660765791     1.429652907012    -0.463427160023    12.000000000000
         C           -1.223604861027     0.715336275384    -0.451997895492    12.000000000000
         C            0.007633689588     1.417394922987    -0.453532241774    12.000000000000
         C            1.231215628021     0.702128464337    -0.472358827431    12.000000000000
         C            2.460816920806     1.403303809875    -0.452854318540    12.000000000000
         C            3.684426074471     0.687210201962    -0.453683104817    12.000000000000
         C            4.918704721813     1.391746334939    -0.466084926452    12.000000000000
         C            7.369797898236     2.779493976934    -0.459876897772    12.000000000000
         C            7.380158486396     1.391229281605    -0.458330214926    12.000000000000
         C            6.139795359397     0.674130396950    -0.452001873115    12.000000000000
         H           -8.279194979072     3.407129814874    -0.465091992279     1.007825032230
         H            8.315109291754     3.318129870373    -0.464087473571     1.007825032230
         C           -8.591760117307     0.724844326794    -0.458688474412    12.000000000000
         C           -8.599028783429    -0.632628032479    -0.456565349829    12.000000000000
         C           -6.139817318844    -0.674124863404    -0.463554691164    12.000000000000
         C           -7.380188291863    -1.391254415832    -0.456138629623    12.000000000000
         C           -4.918688659982    -1.391743244281    -0.451214193015    12.000000000000
         C           -3.684442475410    -0.687225541986    -0.462246433079    12.000000000000
         C           -2.460821219973    -1.403333405075    -0.451703346890    12.000000000000
         C           -1.231166192046    -0.702162091131    -0.463823725682    12.000000000000
         C           -0.007573805113    -1.417407075662    -0.456367201379    12.000000000000
         C            1.223643536163    -0.715263603514    -0.446361579430    12.000000000000
         C            2.445666469606    -1.429631515257    -0.458111592189    12.000000000000
         C            3.676862523121    -0.726695657806    -0.462252176584    12.000000000000
         C            6.132244666694    -0.739967066100    -0.463780150797    12.000000000000
         C            4.903514965779    -1.444445746791    -0.449939076257    12.000000000000
         C            8.599010668965     0.632615640417    -0.458468098782    12.000000000000
         C            8.591741308375    -0.724839093444    -0.456731718521    12.000000000000
         C            7.364858584664    -1.470320891856    -0.456961895214    12.000000000000
         H           -9.528310151544     1.276859222942    -0.460158401376     1.007825032230
         H            9.541406794881     1.174584262194    -0.459520131044     1.007825032230
         C           -7.369842089494    -2.779533372184    -0.454330421201    12.000000000000
         C           -4.924603288776    -2.808425483592    -0.462062053638    12.000000000000
         C           -6.166626675393    -3.516640419076    -0.455760213478    12.000000000000
         C           -3.702514539430    -3.524669775371    -0.451737984452    12.000000000000
         C           -2.467651164839    -2.821314189055    -0.463782622808    12.000000000000
         C           -0.015137653833    -2.833129871650    -0.463501034299    12.000000000000
         C           -1.247126020952    -3.534720401814    -0.451937080891    12.000000000000
         C            1.209240889918    -3.547902904894    -0.449398051100    12.000000000000
         C            2.437331842429    -2.847629964426    -0.463537809411    12.000000000000
         C            4.894298164045    -2.861111194537    -0.462717069339    12.000000000000
         C            3.664611075316    -3.564208071783    -0.449837649399    12.000000000000
         C            6.128634835020    -3.582572283968    -0.456491807441    12.000000000000
         C            7.339668484970    -2.858401533621    -0.454976581360    12.000000000000
         H           -9.541453290984    -1.174551692915    -0.455195933656     1.007825032230
         H            9.528257688346    -1.276907300155    -0.455481910760     1.007825032230
         H           -8.315169223574    -3.318138079463    -0.450158192671     1.007825032230
         H            8.279150962767    -3.407129016144    -0.450637025377     1.007825032230
         C           -6.144998368428    -4.927635499034    -0.454434215418    12.000000000000
         C           -3.706787527723    -4.941249940368    -0.464255183506    12.000000000000
         C           -4.955594237727    -5.643482199745    -0.456288048861    12.000000000000
         C           -2.486125505952    -5.654773800660    -0.451315512462    12.000000000000
         C           -1.254062515205    -4.956110276252    -0.462491118448    12.000000000000
         C            1.201008394143    -4.969268614444    -0.461309994190    12.000000000000
         C           -0.030340854139    -5.669508529390    -0.453466794526    12.000000000000
         C            3.653745921603    -4.980732001665    -0.460551994442    12.000000000000
         C            2.425488516150    -5.681162861778    -0.451175063890    12.000000000000
         C            6.091961438086    -4.993246189637    -0.454197580768    12.000000000000
         C            4.894972264885    -5.696336647208    -0.455433776598    12.000000000000
         H           -7.089896567766    -5.466988068489    -0.450031453737     1.007825032230
         H            7.031051029475    -5.542646762583    -0.450617801004     1.007825032230
         C           -4.923549501924    -7.078809325928    -0.456842817766    12.000000000000
         C           -2.485346267963    -7.087716304180    -0.459352710202    12.000000000000
         C           -3.751690071504    -7.763935383887    -0.459158031277    12.000000000000
         C           -0.037953136713    -7.099453100720    -0.459136985055    12.000000000000
         C           -1.277960280127    -7.772892610917    -0.461121677816    12.000000000000
         C            2.409440141001    -7.114010238253    -0.458273784244    12.000000000000
         C            1.194745757428    -7.786173591813    -0.460426075125    12.000000000000
         C            4.847616872773    -7.131250336830    -0.455766969584    12.000000000000
         C            3.668467426150    -7.803776219194    -0.458115403948    12.000000000000
         H           -5.869944530142    -7.613818824292    -0.455298780901     1.007825032230
         H            5.788245445663    -7.676320415565    -0.454639850102     1.007825032230
         H           -3.753531119175    -8.851059795487    -0.460993945706     1.007825032230
         H           -1.284308585620    -8.860863618748    -0.465549061675     1.007825032230
         H            1.189217394970    -8.874148846840    -0.464518711816     1.007825032230
         H            3.658542435098    -8.890848860304    -0.459769945370     1.007825032230

  Charge       = 0
  Multiplicity = 1
  Basis Set: JUN-CC-PVDZ
    Blend: JUN-CC-PVDZ
  Basis Set: (JUN-CC-PVDZ AUX)
    Blend: JUN-CC-PVDZ-JKFIT

    Orbital Energies [Eh]
    ---------------------

    Doubly Occupied:

       1A    -11.264011     2A    -11.263697     3A    -11.263696
       4A    -11.263355     5A    -11.263352     6A    -11.263317
       7A    -11.263160     8A    -11.263133     9A    -11.263131
      10A    -11.262974    11A    -11.262813    12A    -11.262811
      13A    -11.262332    14A    -11.262330    15A    -11.262257
      16A    -11.262256    17A    -11.262205    18A    -11.262172
      19A    -11.262127    20A    -11.262090    21A    -11.262088
      22A    -11.261935    23A    -11.261930    24A    -11.261815
      25A    -11.261802    26A    -11.261787    27A    -11.261783
      28A    -11.261735    29A    -11.261727    30A    -11.261653
      31A    -11.261626    32A    -11.261623    33A    -11.261597
      34A    -11.261595    35A    -11.261574    36A    -11.261522
      37A    -11.261393    38A    -11.261383    39A    -11.261377
      40A    -11.261370    41A    -11.261365    42A    -11.261357
      43A    -11.261350    44A    -11.261335    45A    -11.261330
      46A    -11.261308    47A    -11.261304    48A    -11.261300
      49A    -11.261139    50A    -11.261106    51A    -11.261104
      52A    -11.261022    53A    -11.261021    54A    -11.260949
      55A    -11.259990    56A    -11.259976    57A    -11.259974
      58A    -11.259945    59A    -11.259943    60A    -11.259927
      61A    -11.259366    62A    -11.259341    63A    -11.259338
      64A    -11.259286    65A    -11.259283    66A    -11.259255
      67A    -11.258993    68A    -11.258975    69A    -11.258974
      70A    -11.258946    71A    -11.258944    72A    -11.258932
      73A    -11.254574    74A    -11.254572    75A    -11.254570
      76A    -11.254568    77A    -11.254563    78A    -11.254561
      79A    -11.253719    80A    -11.253717    81A    -11.253714
      82A    -11.253712    83A    -11.253710    84A    -11.253706
      85A    -11.253634    86A    -11.253633    87A    -11.253629
      88A    -11.253628    89A    -11.253625    90A    -11.253621
      91A    -11.253102    92A    -11.253100    93A    -11.253098
      94A    -11.253096    95A    -11.253091    96A    -11.253089
      97A     -1.254077    98A     -1.239101    99A     -1.239099
     100A     -1.220552   101A     -1.220547   102A     -1.215561
     103A     -1.201118   104A     -1.195685   105A     -1.188255
     106A     -1.188252   107A     -1.173838   108A     -1.173836
     109A     -1.155732   110A     -1.155728   111A     -1.152832
     112A     -1.144793   113A     -1.144791   114A     -1.128660
     115A     -1.114814   116A     -1.113234   117A     -1.112595
     118A     -1.112580   119A     -1.111685   120A     -1.088521
     121A     -1.088506   122A     -1.077031   123A     -1.077030
     124A     -1.067713   125A     -1.067683   126A     -1.065078
     127A     -1.046885   128A     -1.046877   129A     -1.040570
     130A     -1.038804   131A     -1.038803   132A     -1.025345
     133A     -1.021508   134A     -1.021457   135A     -1.007258
     136A     -1.006897   137A     -1.003876   138A     -1.000590
     139A     -1.000542   140A     -0.991140   141A     -0.971082
     142A     -0.971034   143A     -0.955959   144A     -0.955904
     145A     -0.905710   146A     -0.905669   147A     -0.905613
     148A     -0.905573   149A     -0.904461   150A     -0.892481
     151A     -0.892422   152A     -0.890471   153A     -0.890414
     154A     -0.889551   155A     -0.872291   156A     -0.869113
     157A     -0.851617   158A     -0.847967   159A     -0.847947
     160A     -0.845702   161A     -0.843111   162A     -0.834648
     163A     -0.834635   164A     -0.828185   165A     -0.828181
     166A     -0.784636   167A     -0.784625   168A     -0.783759
     169A     -0.783733   170A     -0.782378   171A     -0.782358
     172A     -0.782136   173A     -0.767073   174A     -0.760905
     175A     -0.750682   176A     -0.733556   177A     -0.727154
     178A     -0.727140   179A     -0.725173   180A     -0.724622
     181A     -0.724603   182A     -0.718606   183A     -0.713874
     184A     -0.713869   185A     -0.699657   186A     -0.699644
     187A     -0.686239   188A     -0.686028   189A     -0.686025
     190A     -0.682249   191A     -0.682239   192A     -0.678874
     193A     -0.653709   194A     -0.650956   195A     -0.650926
     196A     -0.649919   197A     -0.649904   198A     -0.649637
     199A     -0.641038   200A     -0.641010   201A     -0.640160
     202A     -0.639228   203A     -0.636117   204A     -0.636090
     205A     -0.629223   206A     -0.617687   207A     -0.615372
     208A     -0.615351   209A     -0.608879   210A     -0.608872
     211A     -0.599157   212A     -0.599130   213A     -0.598830
     214A     -0.598699   215A     -0.598676   216A     -0.598147
     217A     -0.595137   218A     -0.595124   219A     -0.594802
     220A     -0.594347   221A     -0.592045   222A     -0.592042
     223A     -0.587503   224A     -0.577852   225A     -0.577841
     226A     -0.575718   227A     -0.575712   228A     -0.573454
     229A     -0.569567   230A     -0.568247   231A     -0.568222
     232A     -0.566837   233A     -0.566827   234A     -0.560971
     235A     -0.558811   236A     -0.558790   237A     -0.558486
     238A     -0.554449   239A     -0.550606   240A     -0.547530
     241A     -0.544315   242A     -0.535025   243A     -0.534996
     244A     -0.533615   245A     -0.533593   246A     -0.528147
     247A     -0.528131   248A     -0.527901   249A     -0.517267
     250A     -0.517233   251A     -0.515401   252A     -0.515395
     253A     -0.509709   254A     -0.509694   255A     -0.498100
     256A     -0.496530   257A     -0.496503   258A     -0.493823
     259A     -0.493816   260A     -0.489457   261A     -0.481518
     262A     -0.477463   263A     -0.477461   264A     -0.474066
     265A     -0.469526   266A     -0.466607   267A     -0.466602
     268A     -0.458849   269A     -0.446800   270A     -0.446740
     271A     -0.441071   272A     -0.440802   273A     -0.440775
     274A     -0.434732   275A     -0.433949   276A     -0.407420
     277A     -0.407397   278A     -0.386456   279A     -0.386408
     280A     -0.385773   281A     -0.385772   282A     -0.383799
     283A     -0.354371   284A     -0.354354   285A     -0.350708
     286A     -0.338135   287A     -0.335631   288A     -0.335567
     289A     -0.332755   290A     -0.332750   291A     -0.307130
     292A     -0.301992   293A     -0.301932   294A     -0.300886
     295A     -0.286215   296A     -0.256505   297A     -0.253544
     298A     -0.253493   299A     -0.204306   300A     -0.204219

  @DF-RHF Final Energy: -3650.33827862214594

   => Energetics <=

    Nuclear Repulsion Energy =          15611.4211649754324753
    One-Electron Energy =              -36072.1011606816537096
    Two-Electron Energy =               16810.3417170840766630
    Total Energy =                      -3650.3382786221445713
 Dipole X            :         -0.0009319            0.0002112           -0.0007207
 Dipole Y            :          0.0041886           -0.0044281           -0.0002395
 Dipole Z            :        518.6678552         -518.6774076           -0.0095525
 Magnitude           :                                                    0.0095826

    SAPT Results
  --------------------------------------------------------------------------------------------------------
    Electrostatics                 -9.46253921 [mEh]      -5.93783300 [kcal/mol]     -24.84389328 [kJ/mol]
      Elst10,r                     -9.46253921 [mEh]      -5.93783300 [kcal/mol]     -24.84389328 [kJ/mol]

    Exchange                        0.00024764 [mEh]       0.00015539 [kcal/mol]       0.00065017 [kJ/mol]
      Exch10                        0.00024764 [mEh]       0.00015539 [kcal/mol]       0.00065017 [kJ/mol]
      Exch10(S^2)                   0.00024764 [mEh]       0.00015539 [kcal/mol]       0.00065017 [kJ/mol]

    Induction                      -4.05652384 [mEh]      -2.54550714 [kcal/mol]     -10.65040187 [kJ/mol]
      Ind20,r                      -3.98369049 [mEh]      -2.49980352 [kcal/mol]     -10.45917795 [kJ/mol]
      Exch-Ind20,r                  0.00191690 [mEh]       0.00120287 [kcal/mol]       0.00503282 [kJ/mol]
      delta HF,r (2)               -0.07475024 [mEh]      -0.04690649 [kcal/mol]      -0.19625674 [kJ/mol]

    Dispersion                     -2.98167272 [mEh]      -1.87102788 [kcal/mol]      -7.82838064 [kJ/mol]
      Disp20                       -2.98297198 [mEh]      -1.87184318 [kcal/mol]      -7.83179187 [kJ/mol]
      Exch-Disp20                   0.00129927 [mEh]       0.00081530 [kcal/mol]       0.00341122 [kJ/mol]
      Disp20 (SS)                  -1.49148599 [mEh]      -0.93592159 [kcal/mol]      -3.91589593 [kJ/mol]
      Disp20 (OS)                  -1.49148599 [mEh]      -0.93592159 [kcal/mol]      -3.91589593 [kJ/mol]
      Exch-Disp20 (SS)              0.00097099 [mEh]       0.00060931 [kcal/mol]       0.00254934 [kJ/mol]
      Exch-Disp20 (OS)              0.00032827 [mEh]       0.00020600 [kcal/mol]       0.00086188 [kJ/mol]

  Total HF                        -13.51881542 [mEh]      -8.48318475 [kcal/mol]     -35.49364499 [kJ/mol]
  Total SAPT0                     -16.50048814 [mEh]     -10.35421263 [kcal/mol]     -43.32202563 [kJ/mol]

  Special recipe for scaled SAPT0 (see Manual):
    Electrostatics sSAPT0          -9.46253921 [mEh]      -5.93783300 [kcal/mol]     -24.84389328 [kJ/mol]
    Exchange sSAPT0                 0.00024764 [mEh]       0.00015539 [kcal/mol]       0.00065017 [kJ/mol]
    Induction sSAPT0               -4.05652384 [mEh]      -2.54550714 [kcal/mol]     -10.65040187 [kJ/mol]
    Dispersion sSAPT0              -2.98167272 [mEh]      -1.87102788 [kcal/mol]      -7.82838064 [kJ/mol]
  Total sSAPT0                    -16.50048814 [mEh]     -10.35421263 [kcal/mol]     -43.32202563 [kJ/mol]
  --------------------------------------------------------------------------------------------------------

*** Psi4 exiting successfully. Buy a developer a beer!
