                               Psi4 1.9 release

  ==> Input File <==

--------------------------------------------------------------------------
memory 47 GB # how much memory is available ! Depends on the nodes/cores !

molecule dimer {
# monomer A
+1 1    # Charge and multiplicity
C  0.680067 -1.215929 7.208042
C -0.680504 -1.215545 7.206014
N -1.085635  0.102779 7.205016
C  0.000108  0.884180 7.201740
C -2.477365  0.570758 7.155610
N  1.085222  0.102779 7.205016
H  1.385146 -2.033368 7.215870
H -1.385302 -2.033214 7.206204
H -0.000009  1.965269 7.199993
C  2.478117  0.567877 7.221908
H  2.490592  1.658130 7.194563
H  2.967028  0.220701 8.135354
H  3.001428  0.176405 6.346425
H -2.857359  0.490799 6.133539
H -3.082679 -0.042306 7.825694
H -2.518128  1.610706 7.482594
--
# monomer B
0 1     # Charge and multiplicity
C   -3.66844126402057      7.80375217008252      0.00190004133558
C   -4.84759871934653      7.13124183134024     -0.00046653359696
C   -4.89495929917518      5.69633040353158     -0.00103944469517
C   -3.65374067877320      4.98073034095895      0.00662099703436
C   -2.40942512149445      7.11398103667468      0.00209438359570
C   -2.42547734410473      5.68112195090346     -0.00491050527438
C   -1.19474401643570      7.78614419430947      0.00356656413763
C   0.03795902893699      7.09942164575698      0.00139585983271
C   0.03033258741920      5.66948955970466     -0.00408752508301
C   -1.20098450790502      4.96927034791531      0.00488220885047
C   1.27795782581485      7.77285944319479      0.00277170839332
C   2.48535808472416      7.08769688523756      0.00049722048857
C   2.48612868491717      5.65477081024076     -0.00644052849921
C   1.25408291964399      4.95607811366431      0.00518741308898
C   3.75171459140595      7.76391215098033      0.00062407186893
C   4.92356605618520      7.07878077698995     -0.00143240883900
C   4.95560727132542      5.64344746336949     -0.00159282164606
C   3.70680153420475      4.94121020833308      0.00349873852374
H   -3.65852113775815      8.89082741913536      0.00358502958574
H   -1.18921332975660      8.87412108735996      0.00753844057883
H   1.28429423888630      8.86083343548850      0.00693053253426
H   3.75354208679975      8.85103527897216      0.00214659618464
H   5.86995870320703      7.61379483465560     -0.00235777588134
H   -5.78823170750226      7.67630221293400     -0.00202638095293
C   -6.09197395869619      4.99326001364347     -0.00291168518608
C   -6.12866148031747      3.58258016879823     -0.00171050815740
C   -3.66457974004527      3.56418217974434     -0.00463560277484
C   -4.89429820469869      2.86108077590057      0.00453338221034
C   -2.43733499489796      2.84761165708481      0.00719617576166
C   -1.20922785759670      3.54788693497833     -0.00648285103018
C   1.24714157216223      3.53468075142962     -0.00729145743546
C   0.01517603956900      2.83311183930540      0.00439272578912
C   2.46764517244071      2.82128997725533      0.00449278391269
C   3.70254947457969      3.52466015442405     -0.00899517692985
C   6.14498038638375      4.92757236613191     -0.00282626685777
C   6.16658835886151      3.51658447594213     -0.00065971342101
C   4.92460995845939      2.80840792535402      0.00587903281610
H   7.08990550964105      5.46688776622306     -0.00658814770723
H   -7.03104175110130      5.54268795285765     -0.00714490013730
C   -7.33969804112295      2.85841153457957     -0.00333767559888
C   -7.36488195805880      1.47032337158330     -0.00157213747140
C   -4.90350460894690      1.44442681216000     -0.00628840166334
C   -6.13225715261081      0.73993935705394      0.00600164231964
C   -3.67687480051673      0.72669714267312      0.00433931473643
C   -2.44565658606518      1.42964113326212     -0.00597039546461
C   -1.22360068130162      0.71532450163492      0.00545886906656
C   0.00763786931376      1.41738314923765      0.00392452278437
C   1.23121980774686      0.70211669058719     -0.01490206287210
C   2.46082110053113      1.40329203612573      0.00460244601878
C   3.68443025419614      0.68719842821222      0.00377365974158
C   4.91870890153864      1.39173456118907     -0.00862816189375
C   7.36980207796101      2.77948220318441     -0.00242013321349
C   7.38016266612146      1.39121750785509     -0.00087345036788
C   6.13979953912259      0.67411862320065      0.00545489144369
H   -8.27919079934664      3.40711804112415     -0.00763522772059
H   8.31511347147953      3.31811809662368     -0.00663070901292
C   -8.59175593758115      0.72483255304480     -0.00123170985383
C   -8.59902460370342     -0.63263980622873      0.00089141472904
C   -6.13981313911873     -0.67413663715361     -0.00609792660607
C   -7.38018411213749     -1.39126618958160      0.00131813493501
C   -4.91868448025621     -1.39175501803000      0.00624257154343
C   -3.68443829568458     -0.68723731573599     -0.00478966852105
C   -2.46081704024768     -1.40334517882457      0.00575341766833
C   -1.23116201232071     -0.70217386488055     -0.00636696112346
C   -0.00756962538737     -1.41741884941102      0.00108956317991
C   1.22364771588843     -0.71527537726392      0.01109518512883
C   2.44567064933149     -1.42964328900682     -0.00065482763106
C   3.67686670284649     -0.72670743155550     -0.00479541202602
C   6.13224884641929     -0.73997883984993     -0.00632338623858
C   4.90351914550401     -1.44445752054090      0.00751768830159
C   8.59901484869081      0.63260386666793     -0.00101133422380
C   8.59174548810050     -0.72485086719319      0.00072504603735
C   7.36486276438985     -1.47033266560598      0.00049486934466
H   -9.52830597181814      1.27684744919284     -0.00270163681798
H   9.54141097460619      1.17457248844457     -0.00206336648518
C   -7.36983790976868     -2.77954514593389      0.00312634335708
C   -4.92459910905015     -2.80843725734101     -0.00460528907921
C   -6.16662249566744     -3.51665219282533      0.00169655107992
C   -3.70251035970491     -3.52468154912026      0.00571878010666
C   -2.46764698511392     -2.82132596280400     -0.00632585824990
C   -0.01513347410770     -2.83314164539971     -0.00604426974092
C   -1.24712184122656     -3.53473217556300      0.00551968366725
C   1.20924506964357     -3.54791467864352      0.00805871345849
C   2.43733602215464     -2.84764173817541     -0.00608104485234
C   4.89430234377080     -2.86112296828604     -0.00526030478103
C   3.66461525504104     -3.56421984553201      0.00761911515957
C   6.12863901474565     -3.58258405771778      0.00096495711699
C   7.33967266469532     -2.85841330737039      0.00248018319869
H   -9.54144911125902     -1.17456346666430      0.00226083090216
H   9.52826186807155     -1.27691907390448      0.00197485379837
H   -8.31516504384864     -3.31814985321231      0.00729857188773
H   8.27915514249207     -3.40714078989363      0.00681973918158
C   -6.14499418870218     -4.92764727278338      0.00302254913999
C   -3.70678334799751     -4.94126171411716     -0.00679841894792
C   -4.95559005800169     -5.64349397349412      0.00116871569699
C   -2.48612132622665     -5.65478557440947      0.00614125209662
C   -1.25405833548005     -4.95612205000132     -0.00503435388927
C   1.20101257386816     -4.96928038819302     -0.00385322963129
C   -0.03033667441341     -5.66952030313900      0.00398997003238
C   3.65375010132847     -4.98074377541453     -0.00309522988330
C   2.42549269587528     -5.68117463552727      0.00628170066869
C   6.09196561781097     -4.99325796338655      0.00325918379042
C   4.89497644461045     -5.69634842095790      0.00202298796027
H   -7.08989238804069     -5.46699984223871      0.00742531082125
H   7.03105520920009     -5.54265853633254      0.00683896355417
C   -4.92354532219813     -7.07882109967734      0.00061394679214
C   -2.48534208823777     -7.08772807792913     -0.00189594564379
C   -3.75168589177895     -7.76394715763627     -0.00170126671874
C   -0.03794895698805     -7.09946487446944     -0.00168022049625
C   -1.27795610040136     -7.77290438466689     -0.00366491325785
C   2.40944432072629     -7.11402201200282     -0.00081701968533
C   1.19474993715296     -7.78618536556242     -0.00296931056689
C   4.84762105249800     -7.13126211057943      0.00168979497423
C   3.66847160587561     -7.80378799294376     -0.00065863938960
H   -5.86994035041618     -7.61383059804164      0.00215798365757
H   5.78824962538815     -7.67633218931421      0.00281691445618
H   -3.75352693944918     -8.85107156923607     -0.00353718114765
H   -1.28430440589466     -8.86087539249706     -0.00809229711623
H   1.18922157469537     -8.87416062058945     -0.00706194725726
H   3.65854661482387     -8.89086063405326     -0.00231318081200

    units angstrom      # Angstroms are the default
    no_reorient         # Geometry fixed, default
    symmetry c1         # C1 symmetry, default
}

set {
    scf_type DF         # Density fitting, faster than exact integrals
    freeze_core True    # Freeze core electrons
    basis jun-cc-pVDZ   # Jun-cc-pVDZ basis set, recommended for sSAPT0 in https://doi.org/10.1063/1.4867135
}

energy('ssapt0')        # Compute sSAPT0 energy, includes also SAPT0
--------------------------------------------------------------------------

  //              Dimer HF             //
    Molecular point group: c1
  Charge       = 1
  Multiplicity = 1
  Basis Set: JUN-CC-PVDZ
    Blend: JUN-CC-PVDZ
  Basis Set: (JUN-CC-PVDZ AUX)
    Blend: JUN-CC-PVDZ-JKFIT
  @DF-RHF Final Energy: -3953.64509557399379
    Total Energy =                      -3953.6450955739928759
 Dipole X            :          0.0016530            0.0004804            0.0021335
 Dipole Y            :         -1.5347456            1.8866171            0.3518715
 Dipole Z            :        -32.0854030           43.6704833           11.5850802
 Magnitude           :                                                   11.5904228
  //            Monomer A HF           //
    Molecular point group: c1
  Multiplicity = 1
  Basis Set: JUN-CC-PVDZ
    Blend: JUN-CC-PVDZ
  Basis Set: (JUN-CC-PVDZ AUX)
    Blend: JUN-CC-PVDZ-JKFIT
  @DF-RHF Final Energy:  -303.29723799422254
    Total Energy =                       -303.2972379942225416
  //            Monomer B HF           //
    Molecular point group: c1

    Geometry (in Angstrom), charge = 0, multiplicity = 1:

       Center              X                  Y                   Z               Mass
    ------------   -----------------  -----------------  -----------------  -----------------
      Gh(C)           0.680062820275    -1.215917226251     6.659094504741    12.000000000000
      Gh(C)          -0.680508179725    -1.215533226251     6.657066504741    12.000000000000
      Gh(N)          -1.085639179725     0.102790773749     6.656068504741    14.003074004430
      Gh(C)           0.000103820275     0.884191773749     6.652792504741    12.000000000000
      Gh(C)          -2.477369179725     0.570769773749     6.606662504741    12.000000000000
      Gh(N)           1.085217820275     0.102790773749     6.656068504741    14.003074004430
      Gh(H)           1.385141820275    -2.033356226251     6.666922504741     1.007825032230
      Gh(H)          -1.385306179725    -2.033202226251     6.657256504741     1.007825032230
      Gh(H)          -0.000013179725     1.965280773749     6.651045504741     1.007825032230
      Gh(C)           2.478112820275     0.567888773749     6.672960504741    12.000000000000
      Gh(H)           2.490587820275     1.658141773750     6.645615504741     1.007825032230
      Gh(H)           2.967023820275     0.220712773749     7.586406504741     1.007825032230
      Gh(H)           3.001423820275     0.176416773749     5.797477504741     1.007825032230
      Gh(H)          -2.857363179725     0.490810773749     5.584591504741     1.007825032230
      Gh(H)          -3.082683179725    -0.042294226251     7.276746504741     1.007825032230
      Gh(H)          -2.518132179725     1.610717773749     6.933646504741     1.007825032230
         C           -3.668445443746     7.803763943832    -0.547047453923    12.000000000000
         C           -4.847602899072     7.131253605090    -0.549414028856    12.000000000000
         C           -4.894963478901     5.696342177281    -0.549986939954    12.000000000000
         C           -3.653744858499     4.980742114708    -0.542326498224    12.000000000000
         C           -2.409429301220     7.113992810424    -0.546853111663    12.000000000000
         C           -2.425481523830     5.681133724653    -0.553858000533    12.000000000000
         C           -1.194748196161     7.786155968059    -0.545380931121    12.000000000000
         C            0.037954849212     7.099433419506    -0.547551635426    12.000000000000
         C            0.030328407694     5.669501333454    -0.553035020342    12.000000000000
         C           -1.200988687630     4.969282121665    -0.544065286408    12.000000000000
         C            1.277953646089     7.772871216944    -0.546175786866    12.000000000000
         C            2.485353904999     7.087708658987    -0.548450274770    12.000000000000
         C            2.486124505192     5.654782583990    -0.555388023758    12.000000000000
         C            1.254078739919     4.956089887414    -0.543760082170    12.000000000000
         C            3.751710411681     7.763923924730    -0.548323423390    12.000000000000
         C            4.923561876460     7.078792550739    -0.550379904098    12.000000000000
         C            4.955603091600     5.643459237119    -0.550540316905    12.000000000000
         C            3.706797354479     4.941221982083    -0.545448756735    12.000000000000
         H           -3.658525317484     8.890839192885    -0.545362465673     1.007825032230
         H           -1.189217509482     8.874132861109    -0.541409054680     1.007825032230
         H            1.284290059161     8.860845209238    -0.542016962725     1.007825032230
         H            3.753537907074     8.851047052722    -0.546800899074     1.007825032230
         H            5.869954523482     7.613806608405    -0.551305271140     1.007825032230
         H           -5.788235887228     7.676313986684    -0.550973876212     1.007825032230
         C           -6.091978138422     4.993271787393    -0.551859180445    12.000000000000
         C           -6.128665660043     3.582591942548    -0.550658003416    12.000000000000
         C           -3.664583919771     3.564193953494    -0.553583098034    12.000000000000
         C           -4.894302384424     2.861092549650    -0.544414113049    12.000000000000
         C           -2.437339174623     2.847623430834    -0.541751319497    12.000000000000
         C           -1.209232037322     3.547898708728    -0.555430346289    12.000000000000
         C            1.247137392437     3.534692525179    -0.556238952694    12.000000000000
         C            0.015171859844     2.833123613055    -0.544554769470    12.000000000000
         C            2.467640992715     2.821301751005    -0.544454711346    12.000000000000
         C            3.702545294854     3.524671928174    -0.557942672189    12.000000000000
         C            6.144976206658     4.927584139881    -0.551773762117    12.000000000000
         C            6.166584179136     3.516596249692    -0.549607208680    12.000000000000
         C            4.924605778734     2.808419699104    -0.543068462443    12.000000000000
         H            7.089901329916     5.466899539973    -0.555535642966     1.007825032230
         H           -7.031045930827     5.542699726607    -0.556092395396     1.007825032230
         C           -7.339702220848     2.858423308329    -0.552285170858    12.000000000000
         C           -7.364886137784     1.470335145333    -0.550519632730    12.000000000000
         C           -4.903508788672     1.444438585909    -0.555235896922    12.000000000000
         C           -6.132261332336     0.739951130803    -0.542945852939    12.000000000000
         C           -3.676878980242     0.726708916423    -0.544608180522    12.000000000000
         C           -2.445660765791     1.429652907012    -0.554917890723    12.000000000000
         C           -1.223604861027     0.715336275384    -0.543488626192    12.000000000000
         C            0.007633689588     1.417394922987    -0.545022972474    12.000000000000
         C            1.231215628021     0.702128464337    -0.563849558131    12.000000000000
         C            2.460816920806     1.403303809875    -0.544345049240    12.000000000000
         C            3.684426074471     0.687210201962    -0.545173835517    12.000000000000
         C            4.918704721813     1.391746334939    -0.557575657153    12.000000000000
         C            7.369797898236     2.779493976934    -0.551367628472    12.000000000000
         C            7.380158486396     1.391229281605    -0.549820945627    12.000000000000
         C            6.139795359397     0.674130396950    -0.543492603815    12.000000000000
         H           -8.279194979072     3.407129814874    -0.556582722979     1.007825032230
         H            8.315109291754     3.318129870373    -0.555578204272     1.007825032230
         C           -8.591760117307     0.724844326794    -0.550179205113    12.000000000000
         C           -8.599028783429    -0.632628032479    -0.548056080530    12.000000000000
         C           -6.139817318844    -0.674124863404    -0.555045421865    12.000000000000
         C           -7.380188291863    -1.391254415832    -0.547629360324    12.000000000000
         C           -4.918688659982    -1.391743244281    -0.542704923715    12.000000000000
         C           -3.684442475410    -0.687225541986    -0.553737163780    12.000000000000
         C           -2.460821219973    -1.403333405075    -0.543194077591    12.000000000000
         C           -1.231166192046    -0.702162091131    -0.555314456382    12.000000000000
         C           -0.007573805113    -1.417407075662    -0.547857932079    12.000000000000
         C            1.223643536163    -0.715263603514    -0.537852310130    12.000000000000
         C            2.445666469606    -1.429631515257    -0.549602322890    12.000000000000
         C            3.676862523121    -0.726695657806    -0.553742907285    12.000000000000
         C            6.132244666694    -0.739967066100    -0.555270881497    12.000000000000
         C            4.903514965779    -1.444445746791    -0.541429806957    12.000000000000
         C            8.599010668965     0.632615640417    -0.549958829483    12.000000000000
         C            8.591741308375    -0.724839093444    -0.548222449221    12.000000000000
         C            7.364858584664    -1.470320891856    -0.548452625914    12.000000000000
         H           -9.528310151544     1.276859222942    -0.551649132077     1.007825032230
         H            9.541406794881     1.174584262194    -0.551010861744     1.007825032230
         C           -7.369842089494    -2.779533372184    -0.545821151902    12.000000000000
         C           -4.924603288776    -2.808425483592    -0.553552784338    12.000000000000
         C           -6.166626675393    -3.516640419076    -0.547250944179    12.000000000000
         C           -3.702514539430    -3.524669775371    -0.543228715152    12.000000000000
         C           -2.467651164839    -2.821314189055    -0.555273353509    12.000000000000
         C           -0.015137653833    -2.833129871650    -0.554991765000    12.000000000000
         C           -1.247126020952    -3.534720401814    -0.543427811592    12.000000000000
         C            1.209240889918    -3.547902904894    -0.540888781800    12.000000000000
         C            2.437331842429    -2.847629964426    -0.555028540111    12.000000000000
         C            4.894298164045    -2.861111194537    -0.554207800040    12.000000000000
         C            3.664611075316    -3.564208071783    -0.541328380099    12.000000000000
         C            6.128634835020    -3.582572283968    -0.547982538142    12.000000000000
         C            7.339668484970    -2.858401533621    -0.546467312060    12.000000000000
         H           -9.541453290984    -1.174551692915    -0.546686664357     1.007825032230
         H            9.528257688346    -1.276907300155    -0.546972641460     1.007825032230
         H           -8.315169223574    -3.318138079463    -0.541648923371     1.007825032230
         H            8.279150962767    -3.407129016144    -0.542127756077     1.007825032230
         C           -6.144998368428    -4.927635499034    -0.545924946119    12.000000000000
         C           -3.706787527723    -4.941249940368    -0.555745914207    12.000000000000
         C           -4.955594237727    -5.643482199745    -0.547778779562    12.000000000000
         C           -2.486125505952    -5.654773800660    -0.542806243162    12.000000000000
         C           -1.254062515205    -4.956110276252    -0.553981849148    12.000000000000
         C            1.201008394143    -4.969268614444    -0.552800724890    12.000000000000
         C           -0.030340854139    -5.669508529390    -0.544957525226    12.000000000000
         C            3.653745921603    -4.980732001665    -0.552042725142    12.000000000000
         C            2.425488516150    -5.681162861778    -0.542665794590    12.000000000000
         C            6.091961438086    -4.993246189637    -0.545688311468    12.000000000000
         C            4.894972264885    -5.696336647208    -0.546924507299    12.000000000000
         H           -7.089896567766    -5.466988068489    -0.541522184438     1.007825032230
         H            7.031051029475    -5.542646762583    -0.542108531705     1.007825032230
         C           -4.923549501924    -7.078809325928    -0.548333548467    12.000000000000
         C           -2.485346267963    -7.087716304180    -0.550843440903    12.000000000000
         C           -3.751690071504    -7.763935383887    -0.550648761978    12.000000000000
         C           -0.037953136713    -7.099453100720    -0.550627715755    12.000000000000
         C           -1.277960280127    -7.772892610917    -0.552612408517    12.000000000000
         C            2.409440141001    -7.114010238253    -0.549764514944    12.000000000000
         C            1.194745757428    -7.786173591813    -0.551916805826    12.000000000000
         C            4.847616872773    -7.131250336830    -0.547257700285    12.000000000000
         C            3.668467426150    -7.803776219194    -0.549606134648    12.000000000000
         H           -5.869944530142    -7.613818824292    -0.546789511601     1.007825032230
         H            5.788245445663    -7.676320415565    -0.546130580803     1.007825032230
         H           -3.753531119175    -8.851059795487    -0.552484676406     1.007825032230
         H           -1.284308585620    -8.860863618748    -0.557039792375     1.007825032230
         H            1.189217394970    -8.874148846840    -0.556009442516     1.007825032230
         H            3.658542435098    -8.890848860304    -0.551260676071     1.007825032230

  Charge       = 0
  Multiplicity = 1
  Basis Set: JUN-CC-PVDZ
    Blend: JUN-CC-PVDZ
  Basis Set: (JUN-CC-PVDZ AUX)
    Blend: JUN-CC-PVDZ-JKFIT

    Orbital Energies [Eh]
    ---------------------

    Doubly Occupied:

       1A    -11.264053     2A    -11.263739     3A    -11.263738
       4A    -11.263398     5A    -11.263395     6A    -11.263360
       7A    -11.263203     8A    -11.263176     9A    -11.263173
      10A    -11.263017    11A    -11.262857    12A    -11.262853
      13A    -11.262374    14A    -11.262371    15A    -11.262297
      16A    -11.262295    17A    -11.262246    18A    -11.262210
      19A    -11.262166    20A    -11.262127    21A    -11.262125
      22A    -11.261971    23A    -11.261967    24A    -11.261848
      25A    -11.261833    26A    -11.261819    27A    -11.261815
      28A    -11.261768    29A    -11.261760    30A    -11.261687
      31A    -11.261661    32A    -11.261658    33A    -11.261632
      34A    -11.261631    35A    -11.261610    36A    -11.261562
      37A    -11.261423    38A    -11.261411    39A    -11.261405
      40A    -11.261398    41A    -11.261393    42A    -11.261384
      43A    -11.261381    44A    -11.261366    45A    -11.261361
      46A    -11.261339    47A    -11.261335    48A    -11.261330
      49A    -11.261178    50A    -11.261147    51A    -11.261144
      52A    -11.261064    53A    -11.261063    54A    -11.260992
      55A    -11.260024    56A    -11.260010    57A    -11.260008
      58A    -11.259979    59A    -11.259977    60A    -11.259961
      61A    -11.259401    62A    -11.259376    63A    -11.259374
      64A    -11.259321    65A    -11.259319    66A    -11.259290
      67A    -11.259028    68A    -11.259010    69A    -11.259008
      70A    -11.258981    71A    -11.258979    72A    -11.258967
      73A    -11.254596    74A    -11.254594    75A    -11.254593
      76A    -11.254591    77A    -11.254585    78A    -11.254583
      79A    -11.253748    80A    -11.253746    81A    -11.253743
      82A    -11.253742    83A    -11.253739    84A    -11.253734
      85A    -11.253663    86A    -11.253661    87A    -11.253658
      88A    -11.253657    89A    -11.253654    90A    -11.253649
      91A    -11.253124    92A    -11.253122    93A    -11.253121
      94A    -11.253118    95A    -11.253113    96A    -11.253111
      97A     -1.254149    98A     -1.239152    99A     -1.239152
     100A     -1.220595   101A     -1.220590   102A     -1.215622
     103A     -1.201155   104A     -1.195724   105A     -1.188313
     106A     -1.188311   107A     -1.173874   108A     -1.173871
     109A     -1.155786   110A     -1.155782   111A     -1.152891
     112A     -1.144827   113A     -1.144824   114A     -1.128707
     115A     -1.114866   116A     -1.113269   117A     -1.112652
     118A     -1.112638   119A     -1.111717   120A     -1.088569
     121A     -1.088554   122A     -1.077065   123A     -1.077064
     124A     -1.067763   125A     -1.067734   126A     -1.065134
     127A     -1.046928   128A     -1.046920   129A     -1.040616
     130A     -1.038838   131A     -1.038837   132A     -1.025401
     133A     -1.021574   134A     -1.021524   135A     -1.007299
     136A     -1.006943   137A     -1.003918   138A     -1.000644
     139A     -1.000596   140A     -0.991173   141A     -0.971132
     142A     -0.971083   143A     -0.955998   144A     -0.955943
     145A     -0.905773   146A     -0.905732   147A     -0.905645
     148A     -0.905604   149A     -0.904530   150A     -0.892543
     151A     -0.892484   152A     -0.890528   153A     -0.890471
     154A     -0.889602   155A     -0.872327   156A     -0.869140
     157A     -0.851657   158A     -0.848023   159A     -0.848001
     160A     -0.845759   161A     -0.843162   162A     -0.834692
     163A     -0.834679   164A     -0.828219   165A     -0.828216
     166A     -0.784682   167A     -0.784671   168A     -0.783809
     169A     -0.783783   170A     -0.782428   171A     -0.782408
     172A     -0.782193   173A     -0.767117   174A     -0.760966
     175A     -0.750741   176A     -0.733593   177A     -0.727199
     178A     -0.727185   179A     -0.725224   180A     -0.724666
     181A     -0.724647   182A     -0.718669   183A     -0.713931
     184A     -0.713925   185A     -0.699702   186A     -0.699689
     187A     -0.686302   188A     -0.686067   189A     -0.686064
     190A     -0.682290   191A     -0.682280   192A     -0.678926
     193A     -0.653754   194A     -0.651003   195A     -0.650973
     196A     -0.649978   197A     -0.649962   198A     -0.649675
     199A     -0.641098   200A     -0.641070   201A     -0.640200
     202A     -0.639263   203A     -0.636170   204A     -0.636143
     205A     -0.629270   206A     -0.617655   207A     -0.615408
     208A     -0.615388   209A     -0.608921   210A     -0.608914
     211A     -0.599184   212A     -0.599145   213A     -0.598879
     214A     -0.598753   215A     -0.598727   216A     -0.598207
     217A     -0.595176   218A     -0.595163   219A     -0.594848
     220A     -0.594411   221A     -0.592096   222A     -0.592093
     223A     -0.587567   224A     -0.577881   225A     -0.577871
     226A     -0.575736   227A     -0.575732   228A     -0.573496
     229A     -0.569567   230A     -0.568305   231A     -0.568281
     232A     -0.566885   233A     -0.566875   234A     -0.561001
     235A     -0.558864   236A     -0.558845   237A     -0.558518
     238A     -0.554496   239A     -0.550631   240A     -0.547560
     241A     -0.544341   242A     -0.535037   243A     -0.535002
     244A     -0.533659   245A     -0.533636   246A     -0.528185
     247A     -0.528170   248A     -0.527964   249A     -0.517324
     250A     -0.517290   251A     -0.515427   252A     -0.515421
     253A     -0.509748   254A     -0.509732   255A     -0.498143
     256A     -0.496575   257A     -0.496549   258A     -0.493845
     259A     -0.493835   260A     -0.489478   261A     -0.481556
     262A     -0.477489   263A     -0.477486   264A     -0.474109
     265A     -0.469578   266A     -0.466655   267A     -0.466651
     268A     -0.458878   269A     -0.446868   270A     -0.446807
     271A     -0.441102   272A     -0.440828   273A     -0.440803
     274A     -0.434758   275A     -0.433975   276A     -0.407451
     277A     -0.407427   278A     -0.386488   279A     -0.386439
     280A     -0.385799   281A     -0.385798   282A     -0.383832
     283A     -0.354401   284A     -0.354385   285A     -0.350739
     286A     -0.338172   287A     -0.335672   288A     -0.335603
     289A     -0.332782   290A     -0.332775   291A     -0.307166
     292A     -0.302029   293A     -0.301967   294A     -0.300915
     295A     -0.286244   296A     -0.256529   297A     -0.253581
     298A     -0.253528   299A     -0.204338   300A     -0.204249

  @DF-RHF Final Energy: -3650.33762657559737

   => Energetics <=

    Nuclear Repulsion Energy =          15611.4211649754324753
    One-Electron Energy =              -36072.0760322891364922
    Two-Electron Energy =               16810.3172407381061930
    Total Energy =                      -3650.3376265755978238
 Dipole X            :         -0.0009127            0.0002112           -0.0007015
 Dipole Y            :          0.0041751           -0.0044281           -0.0002530
 Dipole Z            :        622.4101512         -622.4128621           -0.0027108
 Magnitude           :                                                    0.0028115

    SAPT Results
  --------------------------------------------------------------------------------------------------------
    Electrostatics                 -7.76162115 [mEh]      -4.87049080 [kcal/mol]     -20.37813351 [kJ/mol]
      Elst10,r                     -7.76162115 [mEh]      -4.87049080 [kcal/mol]     -20.37813351 [kJ/mol]

    Exchange                       -0.00027222 [mEh]      -0.00017082 [kcal/mol]      -0.00071472 [kJ/mol]
      Exch10                       -0.00027222 [mEh]      -0.00017082 [kcal/mol]      -0.00071472 [kJ/mol]
      Exch10(S^2)                  -0.00027222 [mEh]      -0.00017082 [kcal/mol]      -0.00071472 [kJ/mol]

    Induction                      -2.46911080 [mEh]      -1.54939042 [kcal/mol]      -6.48264952 [kJ/mol]
      Ind20,r                      -2.44078517 [mEh]      -1.53161582 [kcal/mol]      -6.40828059 [kJ/mol]
      Exch-Ind20,r                  0.00030523 [mEh]       0.00019154 [kcal/mol]       0.00080139 [kJ/mol]
      delta HF,r (2)               -0.02863086 [mEh]      -0.01796614 [kcal/mol]      -0.07517032 [kJ/mol]

    Dispersion                     -1.30206657 [mEh]      -0.81705911 [kcal/mol]      -3.41857532 [kJ/mol]
      Disp20                       -1.30215872 [mEh]      -0.81711694 [kcal/mol]      -3.41881726 [kJ/mol]
      Exch-Disp20                   0.00009215 [mEh]       0.00005783 [kcal/mol]       0.00024194 [kJ/mol]
      Disp20 (SS)                  -0.65107936 [mEh]      -0.40855847 [kcal/mol]      -1.70940863 [kJ/mol]
      Disp20 (OS)                  -0.65107936 [mEh]      -0.40855847 [kcal/mol]      -1.70940863 [kJ/mol]
      Exch-Disp20 (SS)              0.00006964 [mEh]       0.00004370 [kcal/mol]       0.00018285 [kJ/mol]
      Exch-Disp20 (OS)              0.00002251 [mEh]       0.00001412 [kcal/mol]       0.00005910 [kJ/mol]

  Total HF                        -10.23100417 [mEh]      -6.42005205 [kcal/mol]     -26.86149776 [kJ/mol]
  Total SAPT0                     -11.53307075 [mEh]      -7.23711116 [kcal/mol]     -30.28007307 [kJ/mol]

  Special recipe for scaled SAPT0 (see Manual):
    Electrostatics sSAPT0          -7.76162115 [mEh]      -4.87049080 [kcal/mol]     -20.37813351 [kJ/mol]
    Exchange sSAPT0                -0.00027222 [mEh]      -0.00017082 [kcal/mol]      -0.00071472 [kJ/mol]
    Induction sSAPT0               -2.46911080 [mEh]      -1.54939042 [kcal/mol]      -6.48264952 [kJ/mol]
    Dispersion sSAPT0              -1.30206657 [mEh]      -0.81705911 [kcal/mol]      -3.41857532 [kJ/mol]
  Total sSAPT0                    -11.53307075 [mEh]      -7.23711116 [kcal/mol]     -30.28007307 [kJ/mol]
  --------------------------------------------------------------------------------------------------------

*** Psi4 exiting successfully. Buy a developer a beer!
