                               Psi4 1.9 release

  ==> Input File <==

--------------------------------------------------------------------------
memory 64 GB # how much memory is available ! Depends on the nodes/cores !

molecule dimer {
# monomer A
+1 1    # Charge and multiplicity
C  0.680067 1.417258  -9.415929
C -0.680504 1.419286  -9.415545
N -1.085635 1.420284  -8.097221
C  0.000108 1.423560  -7.315820
C -2.477365 1.469690  -7.629242
N  1.085222 1.420284  -8.097221
H  1.385146 1.409430 -10.233368
H -1.385302 1.419096 -10.233214
H -0.000009 1.425307  -6.234731
C  2.478117 1.403392  -7.632123
H  2.490592 1.430737  -6.541870
H  2.967028 0.489946  -7.979299
H  3.001428 2.278875  -8.023595
H -2.857359 2.491761  -7.709201
H -3.082679 0.799606  -8.242306
H -2.518128 1.142706  -6.589294
--
# monomer B
0 1     # Charge and multiplicity
C   -3.66844126402057      7.80375217008252      0.00190004133558
C   -4.84759871934653      7.13124183134024     -0.00046653359696
C   -4.89495929917518      5.69633040353158     -0.00103944469517
C   -3.65374067877320      4.98073034095895      0.00662099703436
C   -2.40942512149445      7.11398103667468      0.00209438359570
C   -2.42547734410473      5.68112195090346     -0.00491050527438
C   -1.19474401643570      7.78614419430947      0.00356656413763
C   0.03795902893699      7.09942164575698      0.00139585983271
C   0.03033258741920      5.66948955970466     -0.00408752508301
C   -1.20098450790502      4.96927034791531      0.00488220885047
C   1.27795782581485      7.77285944319479      0.00277170839332
C   2.48535808472416      7.08769688523756      0.00049722048857
C   2.48612868491717      5.65477081024076     -0.00644052849921
C   1.25408291964399      4.95607811366431      0.00518741308898
C   3.75171459140595      7.76391215098033      0.00062407186893
C   4.92356605618520      7.07878077698995     -0.00143240883900
C   4.95560727132542      5.64344746336949     -0.00159282164606
C   3.70680153420475      4.94121020833308      0.00349873852374
H   -3.65852113775815      8.89082741913536      0.00358502958574
H   -1.18921332975660      8.87412108735996      0.00753844057883
H   1.28429423888630      8.86083343548850      0.00693053253426
H   3.75354208679975      8.85103527897216      0.00214659618464
H   5.86995870320703      7.61379483465560     -0.00235777588134
H   -5.78823170750226      7.67630221293400     -0.00202638095293
C   -6.09197395869619      4.99326001364347     -0.00291168518608
C   -6.12866148031747      3.58258016879823     -0.00171050815740
C   -3.66457974004527      3.56418217974434     -0.00463560277484
C   -4.89429820469869      2.86108077590057      0.00453338221034
C   -2.43733499489796      2.84761165708481      0.00719617576166
C   -1.20922785759670      3.54788693497833     -0.00648285103018
C   1.24714157216223      3.53468075142962     -0.00729145743546
C   0.01517603956900      2.83311183930540      0.00439272578912
C   2.46764517244071      2.82128997725533      0.00449278391269
C   3.70254947457969      3.52466015442405     -0.00899517692985
C   6.14498038638375      4.92757236613191     -0.00282626685777
C   6.16658835886151      3.51658447594213     -0.00065971342101
C   4.92460995845939      2.80840792535402      0.00587903281610
H   7.08990550964105      5.46688776622306     -0.00658814770723
H   -7.03104175110130      5.54268795285765     -0.00714490013730
C   -7.33969804112295      2.85841153457957     -0.00333767559888
C   -7.36488195805880      1.47032337158330     -0.00157213747140
C   -4.90350460894690      1.44442681216000     -0.00628840166334
C   -6.13225715261081      0.73993935705394      0.00600164231964
C   -3.67687480051673      0.72669714267312      0.00433931473643
C   -2.44565658606518      1.42964113326212     -0.00597039546461
C   -1.22360068130162      0.71532450163492      0.00545886906656
C   0.00763786931376      1.41738314923765      0.00392452278437
C   1.23121980774686      0.70211669058719     -0.01490206287210
C   2.46082110053113      1.40329203612573      0.00460244601878
C   3.68443025419614      0.68719842821222      0.00377365974158
C   4.91870890153864      1.39173456118907     -0.00862816189375
C   7.36980207796101      2.77948220318441     -0.00242013321349
C   7.38016266612146      1.39121750785509     -0.00087345036788
C   6.13979953912259      0.67411862320065      0.00545489144369
H   -8.27919079934664      3.40711804112415     -0.00763522772059
H   8.31511347147953      3.31811809662368     -0.00663070901292
C   -8.59175593758115      0.72483255304480     -0.00123170985383
C   -8.59902460370342     -0.63263980622873      0.00089141472904
C   -6.13981313911873     -0.67413663715361     -0.00609792660607
C   -7.38018411213749     -1.39126618958160      0.00131813493501
C   -4.91868448025621     -1.39175501803000      0.00624257154343
C   -3.68443829568458     -0.68723731573599     -0.00478966852105
C   -2.46081704024768     -1.40334517882457      0.00575341766833
C   -1.23116201232071     -0.70217386488055     -0.00636696112346
C   -0.00756962538737     -1.41741884941102      0.00108956317991
C   1.22364771588843     -0.71527537726392      0.01109518512883
C   2.44567064933149     -1.42964328900682     -0.00065482763106
C   3.67686670284649     -0.72670743155550     -0.00479541202602
C   6.13224884641929     -0.73997883984993     -0.00632338623858
C   4.90351914550401     -1.44445752054090      0.00751768830159
C   8.59901484869081      0.63260386666793     -0.00101133422380
C   8.59174548810050     -0.72485086719319      0.00072504603735
C   7.36486276438985     -1.47033266560598      0.00049486934466
H   -9.52830597181814      1.27684744919284     -0.00270163681798
H   9.54141097460619      1.17457248844457     -0.00206336648518
C   -7.36983790976868     -2.77954514593389      0.00312634335708
C   -4.92459910905015     -2.80843725734101     -0.00460528907921
C   -6.16662249566744     -3.51665219282533      0.00169655107992
C   -3.70251035970491     -3.52468154912026      0.00571878010666
C   -2.46764698511392     -2.82132596280400     -0.00632585824990
C   -0.01513347410770     -2.83314164539971     -0.00604426974092
C   -1.24712184122656     -3.53473217556300      0.00551968366725
C   1.20924506964357     -3.54791467864352      0.00805871345849
C   2.43733602215464     -2.84764173817541     -0.00608104485234
C   4.89430234377080     -2.86112296828604     -0.00526030478103
C   3.66461525504104     -3.56421984553201      0.00761911515957
C   6.12863901474565     -3.58258405771778      0.00096495711699
C   7.33967266469532     -2.85841330737039      0.00248018319869
H   -9.54144911125902     -1.17456346666430      0.00226083090216
H   9.52826186807155     -1.27691907390448      0.00197485379837
H   -8.31516504384864     -3.31814985321231      0.00729857188773
H   8.27915514249207     -3.40714078989363      0.00681973918158
C   -6.14499418870218     -4.92764727278338      0.00302254913999
C   -3.70678334799751     -4.94126171411716     -0.00679841894792
C   -4.95559005800169     -5.64349397349412      0.00116871569699
C   -2.48612132622665     -5.65478557440947      0.00614125209662
C   -1.25405833548005     -4.95612205000132     -0.00503435388927
C   1.20101257386816     -4.96928038819302     -0.00385322963129
C   -0.03033667441341     -5.66952030313900      0.00398997003238
C   3.65375010132847     -4.98074377541453     -0.00309522988330
C   2.42549269587528     -5.68117463552727      0.00628170066869
C   6.09196561781097     -4.99325796338655      0.00325918379042
C   4.89497644461045     -5.69634842095790      0.00202298796027
H   -7.08989238804069     -5.46699984223871      0.00742531082125
H   7.03105520920009     -5.54265853633254      0.00683896355417
C   -4.92354532219813     -7.07882109967734      0.00061394679214
C   -2.48534208823777     -7.08772807792913     -0.00189594564379
C   -3.75168589177895     -7.76394715763627     -0.00170126671874
C   -0.03794895698805     -7.09946487446944     -0.00168022049625
C   -1.27795610040136     -7.77290438466689     -0.00366491325785
C   2.40944432072629     -7.11402201200282     -0.00081701968533
C   1.19474993715296     -7.78618536556242     -0.00296931056689
C   4.84762105249800     -7.13126211057943      0.00168979497423
C   3.66847160587561     -7.80378799294376     -0.00065863938960
H   -5.86994035041618     -7.61383059804164      0.00215798365757
H   5.78824962538815     -7.67633218931421      0.00281691445618
H   -3.75352693944918     -8.85107156923607     -0.00353718114765
H   -1.28430440589466     -8.86087539249706     -0.00809229711623
H   1.18922157469537     -8.87416062058945     -0.00706194725726
H   3.65854661482387     -8.89086063405326     -0.00231318081200

    units angstrom      # Angstroms are the default
    no_reorient         # Geometry fixed, default
    symmetry c1         # C1 symmetry, default
}

set {
    scf_type DF         # Density fitting, faster than exact integrals
    freeze_core True    # Freeze core electrons
    basis jun-cc-pVDZ   # Jun-cc-pVDZ basis set, recommended for sSAPT0 in https://doi.org/10.1063/1.4867135
}

energy('ssapt0')        # Compute sSAPT0 energy, includes also SAPT0
--------------------------------------------------------------------------

  //              Dimer HF             //
    Molecular point group: c1
  Charge       = 1
  Multiplicity = 1
  Basis Set: JUN-CC-PVDZ
    Blend: JUN-CC-PVDZ
  Basis Set: (JUN-CC-PVDZ AUX)
    Blend: JUN-CC-PVDZ-JKFIT
  @DF-RHF Final Energy: -3953.64410639069138
    Total Energy =                      -3953.6441063906931959
 Dipole X            :         -0.0022146            0.0004804           -0.0017342
 Dipole Y            :         -6.7480518            8.7122315            1.9641797
 Dipole Z            :         34.9764777          -47.9140345          -12.9375568
 Magnitude           :                                                   13.0858084
  //            Monomer A HF           //
    Molecular point group: c1
  Multiplicity = 1
  Basis Set: JUN-CC-PVDZ
    Blend: JUN-CC-PVDZ
  Basis Set: (JUN-CC-PVDZ AUX)
    Blend: JUN-CC-PVDZ-JKFIT
  @DF-RHF Final Energy:  -303.29719435673093
    Total Energy =                       -303.2971943567309268
  //            Monomer B HF           //
    Molecular point group: c1

    Geometry (in Angstrom), charge = 0, multiplicity = 1:

       Center              X                  Y                   Z               Mass
    ------------   -----------------  -----------------  -----------------  -----------------
      Gh(C)           0.680062820275     1.308604348936    -8.790748117996    12.000000000000
      Gh(C)          -0.680508179725     1.310632348936    -8.790364117996    12.000000000000
      Gh(N)          -1.085639179725     1.311630348936    -7.472040117996    14.003074004430
      Gh(C)           0.000103820275     1.314906348936    -6.690639117996    12.000000000000
      Gh(C)          -2.477369179725     1.361036348936    -7.004061117996    12.000000000000
      Gh(N)           1.085217820275     1.311630348936    -7.472040117996    14.003074004430
      Gh(H)           1.385141820275     1.300776348936    -9.608187117996     1.007825032230
      Gh(H)          -1.385306179725     1.310442348936    -9.608033117996     1.007825032230
      Gh(H)          -0.000013179725     1.316653348936    -5.609550117996     1.007825032230
      Gh(C)           2.478112820275     1.294738348936    -7.006942117996    12.000000000000
      Gh(H)           2.490587820275     1.322083348936    -5.916689117996     1.007825032230
      Gh(H)           2.967023820275     0.381292348936    -7.354118117996     1.007825032230
      Gh(H)           3.001423820275     2.170221348936    -7.398414117996     1.007825032230
      Gh(H)          -2.857363179725     2.383107348936    -7.084020117996     1.007825032230
      Gh(H)          -3.082683179725     0.690952348936    -7.617125117996     1.007825032230
      Gh(H)          -2.518132179725     1.034052348936    -5.964113117996     1.007825032230
         C           -3.668445443746     7.695098519018     0.627080923339    12.000000000000
         C           -4.847602899072     7.022588180276     0.624714348407    12.000000000000
         C           -4.894963478901     5.587676752467     0.624141437309    12.000000000000
         C           -3.653744858499     4.872076689895     0.631801879038    12.000000000000
         C           -2.409429301220     7.005327385610     0.627275265599    12.000000000000
         C           -2.425481523830     5.572468299839     0.620270376729    12.000000000000
         C           -1.194748196161     7.677490543245     0.628747446141    12.000000000000
         C            0.037954849212     6.990767994693     0.626576741836    12.000000000000
         C            0.030328407694     5.560835908640     0.621093356921    12.000000000000
         C           -1.200988687630     4.860616696851     0.630063090854    12.000000000000
         C            1.277953646089     7.664205792130     0.627952590397    12.000000000000
         C            2.485353904999     6.979043234173     0.625678102492    12.000000000000
         C            2.486124505192     5.546117159176     0.618740353505    12.000000000000
         C            1.254078739919     4.847424462600     0.630368295093    12.000000000000
         C            3.751710411681     7.655258499916     0.625804953873    12.000000000000
         C            4.923561876460     6.970127125926     0.623748473165    12.000000000000
         C            4.955603091600     5.534793812305     0.623588060358    12.000000000000
         C            3.706797354479     4.832556557269     0.628679620528    12.000000000000
         H           -3.658525317484     8.782173768071     0.628765911590     1.007825032230
         H           -1.189217509482     8.765467436296     0.632719322583     1.007825032230
         H            1.284290059161     8.752179784424     0.632111414538     1.007825032230
         H            3.753537907074     8.742381627908     0.627327478188     1.007825032230
         H            5.869954523482     7.505141183591     0.622823106122     1.007825032230
         H           -5.788235887228     7.567648561870     0.623154501051     1.007825032230
         C           -6.091978138422     4.884606362579     0.622269196818    12.000000000000
         C           -6.128665660043     3.473926517734     0.623470373846    12.000000000000
         C           -3.664583919771     3.455528528680     0.620545279229    12.000000000000
         C           -4.894302384424     2.752427124836     0.629714264214    12.000000000000
         C           -2.437339174623     2.738958006020     0.632377057765    12.000000000000
         C           -1.209232037322     3.439233283914     0.618698030974    12.000000000000
         C            1.247137392437     3.426027100365     0.617889424568    12.000000000000
         C            0.015171859844     2.724458188241     0.629573607793    12.000000000000
         C            2.467640992715     2.712636326191     0.629673665916    12.000000000000
         C            3.702545294854     3.416006503360     0.616185705074    12.000000000000
         C            6.144976206658     4.818918715067     0.622354615146    12.000000000000
         C            6.166584179136     3.407930824878     0.624521168583    12.000000000000
         C            4.924605778734     2.699754274290     0.631059914820    12.000000000000
         H            7.089901329916     5.358234115159     0.618592734297     1.007825032230
         H           -7.031045930827     5.434034301793     0.618035981866     1.007825032230
         C           -7.339702220848     2.749757883515     0.621843206405    12.000000000000
         C           -7.364886137784     1.361669720519     0.623608744532    12.000000000000
         C           -4.903508788672     1.335773161096     0.618892480340    12.000000000000
         C           -6.132261332336     0.631285705989     0.631182524323    12.000000000000
         C           -3.676878980242     0.618043491609     0.629520196740    12.000000000000
         C           -2.445660765791     1.320987482198     0.619210486539    12.000000000000
         C           -1.223604861027     0.606670850570     0.630639751070    12.000000000000
         C            0.007633689588     1.308729498173     0.629105404788    12.000000000000
         C            1.231215628021     0.593463039523     0.610278819132    12.000000000000
         C            2.460816920806     1.294638385061     0.629783328023    12.000000000000
         C            3.684426074471     0.578544777148     0.628954541745    12.000000000000
         C            4.918704721813     1.283080910125     0.616552720110    12.000000000000
         C            7.369797898236     2.670828552120     0.622760748790    12.000000000000
         C            7.380158486396     1.282563856791     0.624307431636    12.000000000000
         C            6.139795359397     0.565464972136     0.630635773447    12.000000000000
         H           -8.279194979072     3.298464390060     0.617545654283     1.007825032230
         H            8.315109291754     3.209464445559     0.618550172991     1.007825032230
         C           -8.591760117307     0.616178901980     0.623949172150    12.000000000000
         C           -8.599028783429    -0.741293457293     0.626072296733    12.000000000000
         C           -6.139817318844    -0.782790288218     0.619082955398    12.000000000000
         C           -7.380188291863    -1.499919840646     0.626499016939    12.000000000000
         C           -4.918688659982    -1.500408669094     0.631423453547    12.000000000000
         C           -3.684442475410    -0.795890966800     0.620391213483    12.000000000000
         C           -2.460821219973    -1.511998829889     0.630934299672    12.000000000000
         C           -1.231166192046    -0.810827515945     0.618813920880    12.000000000000
         C           -0.007573805113    -1.526072500475     0.626270445184    12.000000000000
         C            1.223643536163    -0.823929028328     0.636276067133    12.000000000000
         C            2.445666469606    -1.538296940071     0.624526054373    12.000000000000
         C            3.676862523121    -0.835361082620     0.620385469978    12.000000000000
         C            6.132244666694    -0.848632490914     0.618857495765    12.000000000000
         C            4.903514965779    -1.553111171605     0.632698570305    12.000000000000
         C            8.599010668965     0.523950215603     0.624169547780    12.000000000000
         C            8.591741308375    -0.833504518258     0.625905928041    12.000000000000
         C            7.364858584664    -1.578986316670     0.625675751348    12.000000000000
         H           -9.528310151544     1.168193798128     0.622479245186     1.007825032230
         H            9.541406794881     1.065918837380     0.623117515519     1.007825032230
         C           -7.369842089494    -2.888198796998     0.628307225361    12.000000000000
         C           -4.924603288776    -2.917090908405     0.620575592925    12.000000000000
         C           -6.166626675393    -3.625305843890     0.626877433084    12.000000000000
         C           -3.702514539430    -3.633335200185     0.630899662110    12.000000000000
         C           -2.467651164839    -2.929979613868     0.618855023754    12.000000000000
         C           -0.015137653833    -2.941795296464     0.619136612263    12.000000000000
         C           -1.247126020952    -3.643385826627     0.630700565671    12.000000000000
         C            1.209240889918    -3.656568329708     0.633239595462    12.000000000000
         C            2.437331842429    -2.956295389240     0.619099837151    12.000000000000
         C            4.894298164045    -2.969776619350     0.619920577223    12.000000000000
         C            3.664611075316    -3.672873496596     0.632799997163    12.000000000000
         C            6.128634835020    -3.691237708782     0.626145839121    12.000000000000
         C            7.339668484970    -2.967066958435     0.627661065202    12.000000000000
         H           -9.541453290984    -1.283217117729     0.627441712906     1.007825032230
         H            9.528257688346    -1.385572724969     0.627155735802     1.007825032230
         H           -8.315169223574    -3.426803504277     0.632479453891     1.007825032230
         H            8.279150962767    -3.515794440958     0.632000621185     1.007825032230
         C           -6.144998368428    -5.036300923848     0.628203431144    12.000000000000
         C           -3.706787527723    -5.049915365182     0.618382463056    12.000000000000
         C           -4.955594237727    -5.752147624559     0.626349597701    12.000000000000
         C           -2.486125505952    -5.763439225474     0.631322134100    12.000000000000
         C           -1.254062515205    -5.064775701066     0.620146528114    12.000000000000
         C            1.201008394143    -5.077934039257     0.621327652372    12.000000000000
         C           -0.030340854139    -5.778173954203     0.629170852036    12.000000000000
         C            3.653745921603    -5.089397426479     0.622085652120    12.000000000000
         C            2.425488516150    -5.789828286592     0.631462582672    12.000000000000
         C            6.091961438086    -5.101911614451     0.628440065794    12.000000000000
         C            4.894972264885    -5.805002072022     0.627203869964    12.000000000000
         H           -7.089896567766    -5.575653493303     0.632606192825     1.007825032230
         H            7.031051029475    -5.651312187397     0.632019845558     1.007825032230
         C           -4.923549501924    -7.187474750742     0.625794828796    12.000000000000
         C           -2.485346267963    -7.196381728994     0.623284936360    12.000000000000
         C           -3.751690071504    -7.872600808701     0.623479615285    12.000000000000
         C           -0.037953136713    -7.208118525534     0.623500661508    12.000000000000
         C           -1.277960280127    -7.881558035731     0.621515968746    12.000000000000
         C            2.409440141001    -7.222675663067     0.624363862318    12.000000000000
         C            1.194745757428    -7.894839016627     0.622211571437    12.000000000000
         C            4.847616872773    -7.239915761644     0.626870676978    12.000000000000
         C            3.668467426150    -7.912441644008     0.624522242614    12.000000000000
         H           -5.869944530142    -7.722484249106     0.627338865661     1.007825032230
         H            5.788245445663    -7.784985840379     0.627997796460     1.007825032230
         H           -3.753531119175    -8.959725220301     0.621643700856     1.007825032230
         H           -1.284308585620    -8.969529043562     0.617088584888     1.007825032230
         H            1.189217394970    -8.982814271654     0.618118934747     1.007825032230
         H            3.658542435098    -8.999514285118     0.622867701192     1.007825032230

  Charge       = 0
  Multiplicity = 1
  Basis Set: JUN-CC-PVDZ
    Blend: JUN-CC-PVDZ
  Basis Set: (JUN-CC-PVDZ AUX)
    Blend: JUN-CC-PVDZ-JKFIT

    Orbital Energies [Eh]
    ---------------------

    Doubly Occupied:

       1A    -11.264055     2A    -11.263742     3A    -11.263739
       4A    -11.263399     5A    -11.263397     6A    -11.263361
       7A    -11.263204     8A    -11.263178     9A    -11.263175
      10A    -11.263019    11A    -11.262859    12A    -11.262854
      13A    -11.262376    14A    -11.262373    15A    -11.262299
      16A    -11.262298    17A    -11.262248    18A    -11.262212
      19A    -11.262167    20A    -11.262129    21A    -11.262127
      22A    -11.261973    23A    -11.261969    24A    -11.261849
      25A    -11.261835    26A    -11.261820    27A    -11.261817
      28A    -11.261769    29A    -11.261762    30A    -11.261689
      31A    -11.261663    32A    -11.261660    33A    -11.261634
      34A    -11.261632    35A    -11.261612    36A    -11.261564
      37A    -11.261424    38A    -11.261412    39A    -11.261406
      40A    -11.261399    41A    -11.261394    42A    -11.261386
      43A    -11.261382    44A    -11.261367    45A    -11.261362
      46A    -11.261340    47A    -11.261336    48A    -11.261332
      49A    -11.261179    50A    -11.261148    51A    -11.261146
      52A    -11.261066    53A    -11.261065    54A    -11.260994
      55A    -11.260025    56A    -11.260012    57A    -11.260009
      58A    -11.259980    59A    -11.259979    60A    -11.259962
      61A    -11.259403    62A    -11.259378    63A    -11.259375
      64A    -11.259323    65A    -11.259321    66A    -11.259292
      67A    -11.259030    68A    -11.259012    69A    -11.259010
      70A    -11.258982    71A    -11.258981    72A    -11.258969
      73A    -11.254597    74A    -11.254596    75A    -11.254594
      76A    -11.254592    77A    -11.254586    78A    -11.254584
      79A    -11.253749    80A    -11.253747    81A    -11.253745
      82A    -11.253743    83A    -11.253741    84A    -11.253735
      85A    -11.253664    86A    -11.253663    87A    -11.253660
      88A    -11.253659    89A    -11.253656    90A    -11.253650
      91A    -11.253125    92A    -11.253123    93A    -11.253122
      94A    -11.253120    95A    -11.253114    96A    -11.253112
      97A     -1.254152    98A     -1.239155    99A     -1.239154
     100A     -1.220596   101A     -1.220592   102A     -1.215625
     103A     -1.201156   104A     -1.195726   105A     -1.188315
     106A     -1.188314   107A     -1.173876   108A     -1.173873
     109A     -1.155788   110A     -1.155784   111A     -1.152894
     112A     -1.144829   113A     -1.144826   114A     -1.128710
     115A     -1.114869   116A     -1.113271   117A     -1.112654
     118A     -1.112641   119A     -1.111719   120A     -1.088571
     121A     -1.088556   122A     -1.077067   123A     -1.077065
     124A     -1.067765   125A     -1.067736   126A     -1.065137
     127A     -1.046930   128A     -1.046922   129A     -1.040619
     130A     -1.038839   131A     -1.038838   132A     -1.025405
     133A     -1.021578   134A     -1.021528   135A     -1.007301
     136A     -1.006946   137A     -1.003920   138A     -1.000647
     139A     -1.000599   140A     -0.991174   141A     -0.971135
     142A     -0.971086   143A     -0.956000   144A     -0.955945
     145A     -0.905777   146A     -0.905735   147A     -0.905646
     148A     -0.905606   149A     -0.904534   150A     -0.892547
     151A     -0.892488   152A     -0.890531   153A     -0.890474
     154A     -0.889605   155A     -0.872329   156A     -0.869141
     157A     -0.851659   158A     -0.848026   159A     -0.848004
     160A     -0.845762   161A     -0.843165   162A     -0.834694
     163A     -0.834682   164A     -0.828221   165A     -0.828218
     166A     -0.784685   167A     -0.784673   168A     -0.783813
     169A     -0.783786   170A     -0.782431   171A     -0.782411
     172A     -0.782196   173A     -0.767119   174A     -0.760969
     175A     -0.750744   176A     -0.733595   177A     -0.727201
     178A     -0.727188   179A     -0.725227   180A     -0.724668
     181A     -0.724650   182A     -0.718673   183A     -0.713934
     184A     -0.713928   185A     -0.699704   186A     -0.699692
     187A     -0.686306   188A     -0.686069   189A     -0.686066
     190A     -0.682292   191A     -0.682282   192A     -0.678928
     193A     -0.653757   194A     -0.651005   195A     -0.650975
     196A     -0.649981   197A     -0.649966   198A     -0.649677
     199A     -0.641101   200A     -0.641074   201A     -0.640202
     202A     -0.639265   203A     -0.636173   204A     -0.636146
     205A     -0.629273   206A     -0.617664   207A     -0.615410
     208A     -0.615390   209A     -0.608923   210A     -0.608917
     211A     -0.599188   212A     -0.599147   213A     -0.598882
     214A     -0.598757   215A     -0.598730   216A     -0.598211
     217A     -0.595178   218A     -0.595165   219A     -0.594851
     220A     -0.594415   221A     -0.592099   222A     -0.592096
     223A     -0.587571   224A     -0.577883   225A     -0.577873
     226A     -0.575737   227A     -0.575734   228A     -0.573498
     229A     -0.569570   230A     -0.568308   231A     -0.568285
     232A     -0.566888   233A     -0.566878   234A     -0.561003
     235A     -0.558866   236A     -0.558848   237A     -0.558520
     238A     -0.554499   239A     -0.550633   240A     -0.547561
     241A     -0.544343   242A     -0.535040   243A     -0.535002
     244A     -0.533661   245A     -0.533639   246A     -0.528187
     247A     -0.528172   248A     -0.527968   249A     -0.517328
     250A     -0.517294   251A     -0.515428   252A     -0.515423
     253A     -0.509750   254A     -0.509734   255A     -0.498145
     256A     -0.496578   257A     -0.496551   258A     -0.493846
     259A     -0.493837   260A     -0.489480   261A     -0.481559
     262A     -0.477491   263A     -0.477488   264A     -0.474111
     265A     -0.469581   266A     -0.466658   267A     -0.466653
     268A     -0.458880   269A     -0.446872   270A     -0.446811
     271A     -0.441104   272A     -0.440829   273A     -0.440806
     274A     -0.434759   275A     -0.433976   276A     -0.407452
     277A     -0.407428   278A     -0.386489   279A     -0.386441
     280A     -0.385800   281A     -0.385799   282A     -0.383834
     283A     -0.354403   284A     -0.354387   285A     -0.350741
     286A     -0.338174   287A     -0.335674   288A     -0.335605
     289A     -0.332783   290A     -0.332777   291A     -0.307168
     292A     -0.302031   293A     -0.301969   294A     -0.300916
     295A     -0.286246   296A     -0.256530   297A     -0.253582
     298A     -0.253530   299A     -0.204340   300A     -0.204251

  @DF-RHF Final Energy: -3650.33758204205469

   => Energetics <=

    Nuclear Repulsion Energy =          15611.4211649754306563
    One-Electron Energy =              -36072.0746456324268365
    Two-Electron Energy =               16810.3158986149428529
    Total Energy =                      -3650.3375820420551463
 Dipole X            :         -0.0009271            0.0002112           -0.0007159
 Dipole Y            :        123.2129423         -123.2131634           -0.0002211
 Dipole Z            :       -708.8539083          708.8557794            0.0018711
 Magnitude           :                                                    0.0020156

    SAPT Results
  --------------------------------------------------------------------------------------------------------
    Electrostatics                 -7.07411416 [mEh]      -4.43907366 [kcal/mol]     -18.57308418 [kJ/mol]
      Elst10,r                     -7.07411416 [mEh]      -4.43907366 [kcal/mol]     -18.57308418 [kJ/mol]

    Exchange                       -0.00017844 [mEh]      -0.00011197 [kcal/mol]      -0.00046850 [kJ/mol]
      Exch10                       -0.00017844 [mEh]      -0.00011197 [kcal/mol]      -0.00046850 [kJ/mol]
      Exch10(S^2)                  -0.00017844 [mEh]      -0.00011197 [kcal/mol]      -0.00046850 [kJ/mol]

    Induction                      -2.25569930 [mEh]      -1.41547268 [kcal/mol]      -5.92233769 [kJ/mol]
      Ind20,r                      -2.22689081 [mEh]      -1.39739508 [kcal/mol]      -5.84670103 [kJ/mol]
      Exch-Ind20,r                  0.00009555 [mEh]       0.00005996 [kcal/mol]       0.00025086 [kJ/mol]
      delta HF,r (2)               -0.02890403 [mEh]      -0.01813755 [kcal/mol]      -0.07588753 [kJ/mol]

    Dispersion                     -0.85556901 [mEh]      -0.53687766 [kcal/mol]      -2.24629614 [kJ/mol]
      Disp20                       -0.85560592 [mEh]      -0.53690082 [kcal/mol]      -2.24639302 [kJ/mol]
      Exch-Disp20                   0.00003690 [mEh]       0.00002316 [kcal/mol]       0.00009689 [kJ/mol]
      Disp20 (SS)                  -0.42780296 [mEh]      -0.26845041 [kcal/mol]      -1.12319651 [kJ/mol]
      Disp20 (OS)                  -0.42780296 [mEh]      -0.26845041 [kcal/mol]      -1.12319651 [kJ/mol]
      Exch-Disp20 (SS)              0.00002705 [mEh]       0.00001697 [kcal/mol]       0.00007102 [kJ/mol]
      Exch-Disp20 (OS)              0.00000985 [mEh]       0.00000618 [kcal/mol]       0.00002587 [kJ/mol]

  Total HF                         -9.32999191 [mEh]      -5.85465831 [kcal/mol]     -24.49589037 [kJ/mol]
  Total SAPT0                     -10.18556092 [mEh]      -6.39153597 [kcal/mol]     -26.74218651 [kJ/mol]

  Special recipe for scaled SAPT0 (see Manual):
    Electrostatics sSAPT0          -7.07411416 [mEh]      -4.43907366 [kcal/mol]     -18.57308418 [kJ/mol]
    Exchange sSAPT0                -0.00017844 [mEh]      -0.00011197 [kcal/mol]      -0.00046850 [kJ/mol]
    Induction sSAPT0               -2.25569930 [mEh]      -1.41547268 [kcal/mol]      -5.92233769 [kJ/mol]
    Dispersion sSAPT0              -0.85556901 [mEh]      -0.53687766 [kcal/mol]      -2.24629614 [kJ/mol]
  Total sSAPT0                    -10.18556092 [mEh]      -6.39153597 [kcal/mol]     -26.74218651 [kJ/mol]
  --------------------------------------------------------------------------------------------------------

*** Psi4 exiting successfully. Buy a developer a beer!
